 vasp.6.3.2 27Jun22 (build Aug 21 2024 08:45:13) complex                        
  
 executed on             LinuxIFC date 2025.07.15  01:45:40
 running on   80 total cores
 distrk:  each k-point on   80 cores,    1 groups
 distr:  one band on NCORE=   2 cores,   40 groups


--------------------------------------------------------------------------------------------------------


 INCAR:
   SYSTEM = NFMO_O2
   NWRITE = 2
   PREC = ACCURATE
   ISTART = 1
   ICHARG = 1
   LASPH = .TRUE.
   ISPIN = 2
   MAGMOM = 8*0.1 18*4.2 18*3.2 72*0.1
   LORBIT = 11
   ENCUT = 680
   SIGMA = 0.05
   ISMEAR = 0
   NELM = 350
   NELMIN = 2
   LREAL = AUTO
   NSW = 0
   IBRION = -1
   ISIF = 3
   EDIFF = 1.0E-05
   EDIFFG = -0.01
   ADDGRID = .TRUE.
   NCORE = 2
   METAGGA = R2SCAN
   LMAXMIX = 6

 POTCAR:    PAW_PBE Na_pv 19Sep2006               
 POTCAR:    PAW_PBE Fe 06Sep2000                  
 POTCAR:    PAW_PBE Mn_pv 02Aug2007               
 POTCAR:    PAW_PBE O 08Apr2002                   
 -----------------------------------------------------------------------------
|                                                                             |
|           W    W    AA    RRRRR   N    N  II  N    N   GGGG   !!!           |
|           W    W   A  A   R    R  NN   N  II  NN   N  G    G  !!!           |
|           W    W  A    A  R    R  N N  N  II  N N  N  G       !!!           |
|           W WW W  AAAAAA  RRRRR   N  N N  II  N  N N  G  GGG   !            |
|           WW  WW  A    A  R   R   N   NN  II  N   NN  G    G                |
|           W    W  A    A  R    R  N    N  II  N    N   GGGG   !!!           |
|                                                                             |
|     For optimal performance we recommend to set                             |
|       NCORE = 2 up to number-of-cores-per-socket                            |
|     NCORE specifies how many cores store one orbital (NPAR=cpu/NCORE).      |
|     This setting can greatly improve the performance of VASP for DFT.       |
|     The default, NCORE=1 might be grossly inefficient on modern             |
|     multi-core architectures or massively parallel machines. Do your        |
|     own testing! More info at https://www.vasp.at/wiki/index.php/NCORE      |
|     Unfortunately you need to use the default for GW and RPA                |
|     calculations (for HF NCORE is supported but not extensively tested      |
|     yet).                                                                   |
|                                                                             |
 -----------------------------------------------------------------------------

 POTCAR:    PAW_PBE Na_pv 19Sep2006               
   VRHFIN =Na: p6s1                                                                                 
   LEXCH  = PE                                                                                      
   EATOM  =   766.0439 eV,   56.3026 Ry                                                             
                                                                                                    
   TITEL  = PAW_PBE Na_pv 19Sep2006                                                                 
   LULTRA =        F    use ultrasoft PP ?                                                          
   IUNSCR =        1    unscreen: 0-lin 1-nonlin 2-no                                               
   RPACOR =    1.800    partial core radius                                                         
   POMASS =   22.990; ZVAL   =    7.000    mass and valenz                                          
   RCORE  =    2.200    outmost cutoff radius                                                       
   RWIGS  =    2.200; RWIGS  =    1.164    wigner-seitz radius (au A)                               
   ENMAX  =  259.561; ENMIN  =  194.671 eV                                                          
   ICORE  =        2    local potential                                                             
   LCOR   =        T    correct aug charges                                                         
   LPAW   =        T    paw PP                                                                      
   EAUG   =  368.056                                                                                
   DEXC   =    0.000                                                                                
   RMAX   =    2.245    core radius for proj-oper                                                   
   RAUG   =    1.300    factor for augmentation sphere                                              
   RDEP   =    2.259    radius for radial grids                                                     
   RDEPT  =    1.738    core radius for aug-charge                                                  
                                                                                                    
   Atomic configuration                                                                             
    5 entries                                                                                       
     n  l   j            E        occ.                                                              
     1  0  0.50     -1033.6933   2.0000                                                             
     2  0  0.50       -56.7526   2.0000                                                             
     2  1  1.50       -28.6721   6.0000                                                             
     3  0  0.50        -2.7440   1.0000                                                             
     3  2  1.50        -1.3606   0.0000                                                             
   Description                                                                                      
     l       E           TYP  RCUT    TYP  RCUT                                                     
     1    -28.6720912     23  2.000                                                                 
     1      6.8029130     23  2.000                                                                 
     0     -2.7439560     23  2.200                                                                 
     0     34.0145650     23  2.200                                                                 
     2     -1.3605826     23  2.200                                                                 
  local pseudopotential read in
  partial core-charges read in
  partial kinetic energy density read in
  atomic valenz-charges read in
  non local Contribution for L=           1  read in
    real space projection operators read in
  non local Contribution for L=           1  read in
    real space projection operators read in
  non local Contribution for L=           0  read in
    real space projection operators read in
  non local Contribution for L=           0  read in
    real space projection operators read in
    PAW grid and wavefunctions read in
 
   number of l-projection  operators is LMAX  =           4
   number of lm-projection operators is LMMAX =           8
 
 POTCAR:    PAW_PBE Fe 06Sep2000                  
   VRHFIN =Fe:  d7 s1                                                                               
   LEXCH  = PE                                                                                      
   EATOM  =   594.3153 eV,   43.6809 Ry                                                             
                                                                                                    
   TITEL  = PAW_PBE Fe 06Sep2000                                                                    
   LULTRA =        F    use ultrasoft PP ?                                                          
   IUNSCR =        1    unscreen: 0-lin 1-nonlin 2-no                                               
   RPACOR =    2.000    partial core radius                                                         
   POMASS =   55.847; ZVAL   =    8.000    mass and valenz                                          
   RCORE  =    2.300    outmost cutoff radius                                                       
   RWIGS  =    2.460; RWIGS  =    1.302    wigner-seitz radius (au A)                               
   ENMAX  =  267.882; ENMIN  =  200.911 eV                                                          
   RCLOC  =    1.701    cutoff for local pot                                                        
   LCOR   =        T    correct aug charges                                                         
   LPAW   =        T    paw PP                                                                      
   EAUG   =  511.368                                                                                
   DEXC   =    0.000                                                                                
   RMAX   =    2.356    core radius for proj-oper                                                   
   RAUG   =    1.300    factor for augmentation sphere                                              
   RDEP   =    2.442    radius for radial grids                                                     
   RDEPT  =    1.890    core radius for aug-charge                                                  
                                                                                                    
   Atomic configuration                                                                             
    9 entries                                                                                       
     n  l   j            E        occ.                                                              
     1  0  0.50     -6993.8440   2.0000                                                             
     2  0  0.50      -814.6047   2.0000                                                             
     2  1  1.50      -693.3689   6.0000                                                             
     3  0  0.50       -89.4732   2.0000                                                             
     3  1  1.50       -55.6373   6.0000                                                             
     3  2  2.50        -3.8151   7.0000                                                             
     4  0  0.50        -4.2551   1.0000                                                             
     4  1  1.50        -3.4015   0.0000                                                             
     4  3  2.50        -1.3606   0.0000                                                             
   Description                                                                                      
     l       E           TYP  RCUT    TYP  RCUT                                                     
     2     -3.8151135     23  2.300                                                                 
     2     -5.1756961     23  2.300                                                                 
     0     -4.2550963     23  2.300                                                                 
     0      7.2035603     23  2.300                                                                 
     1     -2.7211652     23  2.300                                                                 
     1     18.4316424     23  2.300                                                                 
  local pseudopotential read in
  partial core-charges read in
  partial kinetic energy density read in
  atomic valenz-charges read in
  non local Contribution for L=           2  read in
    real space projection operators read in
  non local Contribution for L=           2  read in
    real space projection operators read in
  non local Contribution for L=           0  read in
    real space projection operators read in
  non local Contribution for L=           0  read in
    real space projection operators read in
  non local Contribution for L=           1  read in
    real space projection operators read in
  non local Contribution for L=           1  read in
    real space projection operators read in
    PAW grid and wavefunctions read in
 
   number of l-projection  operators is LMAX  =           6
   number of lm-projection operators is LMMAX =          18
 
 POTCAR:    PAW_PBE Mn_pv 02Aug2007               
   VRHFIN =Mn: 3p4s3d                                                                               
   LEXCH  = PE                                                                                      
   EATOM  =  2025.2664 eV,  148.8529 Ry                                                             
                                                                                                    
   TITEL  = PAW_PBE Mn_pv 02Aug2007                                                                 
   LULTRA =        F    use ultrasoft PP ?                                                          
   IUNSCR =        1    unscreen: 0-lin 1-nonlin 2-no                                               
   RPACOR =    2.080    partial core radius                                                         
   POMASS =   54.938; ZVAL   =   13.000    mass and valenz                                          
   RCORE  =    2.300    outmost cutoff radius                                                       
   RWIGS  =    2.500; RWIGS  =    1.323    wigner-seitz radius (au A)                               
   ENMAX  =  269.864; ENMIN  =  202.398 eV                                                          
   ICORE  =        3    local potential                                                             
   LCOR   =        T    correct aug charges                                                         
   LPAW   =        T    paw PP                                                                      
   EAUG   =  569.085                                                                                
   DEXC   =    0.000                                                                                
   RMAX   =    2.343    core radius for proj-oper                                                   
   RAUG   =    1.300    factor for augmentation sphere                                              
   RDEP   =    2.338    radius for radial grids                                                     
   RDEPT  =    1.798    core radius for aug-charge                                                  
                                                                                                    
   Atomic configuration                                                                             
    8 entries                                                                                       
     n  l   j            E        occ.                                                              
     1  0  0.50     -6424.8287   2.0000                                                             
     2  0  0.50      -739.1154   2.0000                                                             
     2  1  1.50      -625.3949   6.0000                                                             
     3  0  0.50       -81.6100   2.0000                                                             
     3  1  1.50       -50.4667   6.0000                                                             
     3  2  2.50        -3.3745   6.0000                                                             
     4  0  0.50        -4.1331   1.0000                                                             
     4  3  2.50        -1.3606   0.0000                                                             
   Description                                                                                      
     l       E           TYP  RCUT    TYP  RCUT                                                     
     1    -50.4666628     23  2.000                                                                 
     1     -1.3605826     23  2.000                                                                 
     2     -3.3744729     23  2.300                                                                 
     2     -4.7350555     23  2.300                                                                 
     0     -4.1331431     23  2.300                                                                 
     0      7.6656591     23  2.300                                                                 
     3      9.5240782     23  2.300                                                                 
  local pseudopotential read in
  partial core-charges read in
  partial kinetic energy density read in
  atomic valenz-charges read in
  non local Contribution for L=           1  read in
    real space projection operators read in
  non local Contribution for L=           1  read in
    real space projection operators read in
  non local Contribution for L=           2  read in
    real space projection operators read in
  non local Contribution for L=           2  read in
    real space projection operators read in
  non local Contribution for L=           0  read in
    real space projection operators read in
  non local Contribution for L=           0  read in
    real space projection operators read in
    PAW grid and wavefunctions read in
 
   number of l-projection  operators is LMAX  =           6
   number of lm-projection operators is LMMAX =          18
 
 POTCAR:    PAW_PBE O 08Apr2002                   
   VRHFIN =O: s2p4                                                                                  
   LEXCH  = PE                                                                                      
   EATOM  =   432.3788 eV,   31.7789 Ry                                                             
                                                                                                    
   TITEL  = PAW_PBE O 08Apr2002                                                                     
   LULTRA =        F    use ultrasoft PP ?                                                          
   IUNSCR =        1    unscreen: 0-lin 1-nonlin 2-no                                               
   RPACOR =    1.200    partial core radius                                                         
   POMASS =   16.000; ZVAL   =    6.000    mass and valenz                                          
   RCORE  =    1.520    outmost cutoff radius                                                       
   RWIGS  =    1.550; RWIGS  =    0.820    wigner-seitz radius (au A)                               
   ENMAX  =  400.000; ENMIN  =  300.000 eV                                                          
   ICORE  =        2    local potential                                                             
   LCOR   =        T    correct aug charges                                                         
   LPAW   =        T    paw PP                                                                      
   EAUG   =  605.392                                                                                
   DEXC   =    0.000                                                                                
   RMAX   =    1.553    core radius for proj-oper                                                   
   RAUG   =    1.300    factor for augmentation sphere                                              
   RDEP   =    1.550    radius for radial grids                                                     
   RDEPT  =    1.329    core radius for aug-charge                                                  
                                                                                                    
   Atomic configuration                                                                             
    4 entries                                                                                       
     n  l   j            E        occ.                                                              
     1  0  0.50      -514.6923   2.0000                                                             
     2  0  0.50       -23.9615   2.0000                                                             
     2  1  0.50        -9.0305   4.0000                                                             
     3  2  1.50        -9.5241   0.0000                                                             
   Description                                                                                      
     l       E           TYP  RCUT    TYP  RCUT                                                     
     0    -23.9615318     23  1.200                                                                 
     0     -9.5240782     23  1.200                                                                 
     1     -9.0304911     23  1.520                                                                 
     1      8.1634956     23  1.520                                                                 
     2     -9.5240782      7  1.500                                                                 
  local pseudopotential read in
  partial core-charges read in
  partial kinetic energy density read in
  kinetic energy density of atom read in
  atomic valenz-charges read in
  non local Contribution for L=           0  read in
    real space projection operators read in
  non local Contribution for L=           0  read in
    real space projection operators read in
  non local Contribution for L=           1  read in
    real space projection operators read in
  non local Contribution for L=           1  read in
    real space projection operators read in
    PAW grid and wavefunctions read in
 
   number of l-projection  operators is LMAX  =           4
   number of lm-projection operators is LMMAX =           8
 
 Optimization of the real space projectors (new method)

 maximal supplied QI-value         = 17.01
 optimisation between [QCUT,QGAM] = [ 13.27, 26.70] = [ 49.28,199.66] Ry 
 Optimized for a Real-space Cutoff    1.38 Angstroem

   l    n(q)    QCUT    max X(q) W(low)/X(q) W(high)/X(q)  e(spline) 
   1     11    13.266     4.940    0.11E-03    0.62E-04    0.24E-06
   1     11    13.266     6.253    0.16E-03    0.89E-04    0.35E-06
   0     11    13.266    37.438    0.39E-04    0.39E-05    0.18E-06
   0     11    13.266     9.606    0.17E-04    0.30E-05    0.12E-06
 Optimization of the real space projectors (new method)

 maximal supplied QI-value         = 16.25
 optimisation between [QCUT,QGAM] = [ 13.33, 26.65] = [ 49.73,198.92] Ry 
 Optimized for a Real-space Cutoff    1.38 Angstroem

   l    n(q)    QCUT    max X(q) W(low)/X(q) W(high)/X(q)  e(spline) 
   2     10    13.326    80.901    0.22E-03    0.32E-04    0.60E-06
   2     10    13.326    75.754    0.22E-03    0.33E-04    0.61E-06
   0     11    13.326    58.752    0.44E-04    0.45E-04    0.98E-06
   0     11    13.326    30.679    0.40E-04    0.41E-04    0.90E-06
   1     11    13.326    17.977    0.14E-03    0.11E-03    0.27E-06
   1     11    13.326    13.559    0.11E-03    0.90E-04    0.23E-06
 Optimization of the real space projectors (new method)

 maximal supplied QI-value         = 16.25
 optimisation between [QCUT,QGAM] = [ 13.33, 26.65] = [ 49.73,198.92] Ry 
 Optimized for a Real-space Cutoff    1.30 Angstroem

   l    n(q)    QCUT    max X(q) W(low)/X(q) W(high)/X(q)  e(spline) 
   1     10    13.326     3.658    0.55E-04    0.20E-03    0.16E-06
   1     10    13.326     5.612    0.11E-03    0.38E-03    0.30E-06
   2      9    13.326    55.373    0.12E-03    0.13E-03    0.32E-06
   2      9    13.326    50.863    0.12E-03    0.13E-03    0.33E-06
   0     10    13.326    79.536    0.53E-04    0.58E-04    0.27E-06
   0     10    13.326    38.668    0.48E-04    0.53E-04    0.25E-06
 Optimization of the real space projectors (new method)

 maximal supplied QI-value         = 24.76
 optimisation between [QCUT,QGAM] = [ 13.12, 26.49] = [ 48.21,196.48] Ry 
 Optimized for a Real-space Cutoff    1.12 Angstroem

   l    n(q)    QCUT    max X(q) W(low)/X(q) W(high)/X(q)  e(spline) 
   0      9    13.120    20.381    0.21E-03    0.13E-03    0.22E-06
   0      9    13.120    15.268    0.22E-03    0.14E-03    0.23E-06
   1      8    13.120     5.964    0.12E-03    0.26E-03    0.20E-06
   1      8    13.120     5.382    0.98E-04    0.22E-03    0.17E-06
  PAW_PBE Na_pv 19Sep2006               :
 energy of atom  1       EATOM= -766.0439
 kinetic energy error for atom=    0.0010 (will be added to EATOM!!)
  PAW_PBE Fe 06Sep2000                  :
 energy of atom  2       EATOM= -594.3153
 kinetic energy error for atom=    0.0007 (will be added to EATOM!!)
  PAW_PBE Mn_pv 02Aug2007               :
 energy of atom  3       EATOM=-2025.2664
 kinetic energy error for atom=    0.0024 (will be added to EATOM!!)
  PAW_PBE O 08Apr2002                   :
 energy of atom  4       EATOM= -432.3788
 kinetic energy error for atom=    0.0105 (will be added to EATOM!!)
 
 
 POSCAR:  Sodio_gutxiago
  positions in direct lattice
  velocities in cartesian coordinates

 METAGGA = R2SCA    LMAXTAU =  6    LMIXTAU =  F

 exchange correlation table for  LEXCH =        8
   RHO(1)=    0.500       N(1)  =     2000
   RHO(2)=  100.500       N(2)  =     4000
 


--------------------------------------------------------------------------------------------------------


 ion  position               nearest neighbor table
   1  0.835  0.060  0.375-  15 2.96
   2  0.998  0.555  0.377-
   3  0.336  0.225  0.377-
   4  0.503  0.721  0.377-
   5  0.337  0.779  0.879-
   6  0.504  0.277  0.877-
   7  0.833  0.947  0.876-
   8  0.998  0.441  0.876-
   9  0.657  0.555  0.123-  46 1.88  64 1.90  54 1.91  67 1.91  70 1.96  52 1.96  13 2.69  11 2.72
                            17 2.74  33 2.85  32 2.87  27 2.88
  10  0.160  0.052  0.123-  68 1.90  45 1.90  51 1.92  63 1.92  53 1.92  69 1.96  12 2.73  15 2.75
                            28 2.82  29 2.83  34 2.87  31 2.90
  11  0.500  0.717  0.122-  54 1.87  48 1.90  64 1.91  72 1.92  56 1.92  66 1.95   9 2.72  13 2.74
                            32 2.79  30 2.84  28 2.89  16 2.92
  12  0.996  0.892  0.127-  68 1.89  80 1.90  45 1.90  78 1.92  62 1.93  50 1.96  15 2.71  10 2.73
                            16 2.75  32 2.85  28 2.87  30 2.87
  13  0.340  0.556  0.123-  46 1.88  79 1.90  64 1.90  48 1.93  76 1.96  58 1.97   9 2.69  11 2.74
                            17 2.76  35 2.84  30 2.86  27 2.90
  14  0.665  0.222  0.127-  65 1.91  77 1.91  47 1.91  75 1.92  49 1.93  59 1.94  33 2.80  29 2.80
                            31 2.82  34 2.83  17 2.87  15 2.89
  15  0.835  0.052  0.122-  45 1.90  57 1.91  63 1.92  80 1.92  47 1.92  75 1.94  12 2.71  10 2.75
                            16 2.75  29 2.82  31 2.83  14 2.89   1 2.96
  16  0.671  0.890  0.128-  80 1.89  62 1.91  57 1.92  74 1.92  72 1.93  56 1.94  15 2.75  12 2.75
                            32 2.79  31 2.81  28 2.86  11 2.92
  17  0.499  0.392  0.127-  67 1.89  79 1.90  46 1.90  49 1.93  77 1.94  61 1.95   9 2.74  13 2.76
                            33 2.78  35 2.80  14 2.87  34 2.89
  18  0.167  0.276  0.626- 101 1.89  89 1.90 107 1.91 109 1.91  91 1.92  97 1.94  19 2.76  43 2.79
                            39 2.80  25 2.83  24 2.83  23 2.86
  19  0.005  0.113  0.625- 101 1.89  99 1.90  89 1.92  81 1.93  83 1.93 111 1.95  18 2.76  39 2.78
                            21 2.79  24 2.83  40 2.85  42 2.87
  20  0.661  0.443  0.625-  82 1.89  85 1.89 115 1.90 100 1.92 103 1.94  88 1.97  25 2.71  23 2.71
                            26 2.76  24 2.82  38 2.83  43 2.89
  21  0.169  0.949  0.622-  87 1.88  99 1.90 104 1.92  81 1.93  86 1.95 116 1.95  22 2.77  39 2.78
                            19 2.79  40 2.84  37 2.85  36 2.87
  22  0.496  0.947  0.622-  87 1.89 105 1.90 104 1.91  93 1.94 110 1.95  92 1.96  21 2.77  39 2.79
                            37 2.82  42 2.85  40 2.86  41 2.86
  23  0.341  0.443  0.625-  82 1.89 115 1.90 112 1.91  97 1.91 109 1.94  94 1.97  20 2.71  25 2.71
                            26 2.75  44 2.83  18 2.86  43 2.88
  24  0.832  0.278  0.623-  85 1.90  83 1.91 101 1.91 103 1.91  91 1.92 113 1.93  43 2.78  42 2.78
                            25 2.82  20 2.82  19 2.83  18 2.83
  25  0.500  0.283  0.623-  85 1.88  97 1.89 115 1.90 113 1.93  95 1.94 107 1.94  20 2.71  23 2.71
                            24 2.82  18 2.83  42 2.85  39 2.88
  26  0.500  0.606  0.629-  82 1.89 100 1.89 112 1.89  90 1.94  84 1.95 102 1.97  23 2.75  20 2.76
                            44 2.79  38 2.80  41 2.89  37 2.91
  27  0.997  0.556  0.119-  60 1.89  52 1.90  70 1.91  58 1.91  76 1.92  73 1.93  30 2.83  32 2.84
                            35 2.84  33 2.86   9 2.88  13 2.90
  28  0.334  0.889  0.131-  74 1.89  51 1.90  68 1.91  50 1.92  56 1.93  66 1.93  31 2.82  10 2.82
                            30 2.83  16 2.86  12 2.87  11 2.89
  29  0.996  0.220  0.125-  47 1.88  53 1.91  63 1.91  65 1.91  55 1.93  71 1.95  14 2.80  15 2.82
                            10 2.83  34 2.85  33 2.86  35 2.89
  30  0.165  0.723  0.127-  78 1.90  50 1.90  76 1.91  66 1.91  60 1.92  48 1.93  27 2.83  28 2.83
                            11 2.84  32 2.85  13 2.86  12 2.87
  31  0.502  0.055  0.122-  74 1.91  75 1.91  51 1.91  57 1.92  69 1.93  59 1.93  16 2.81  28 2.82
                            14 2.82  15 2.83  34 2.83  10 2.90
  32  0.830  0.723  0.122-  72 1.90  62 1.91  54 1.91  78 1.91  60 1.93  70 1.93  16 2.79  11 2.79
                            27 2.84  30 2.85  12 2.85   9 2.87
  33  0.827  0.388  0.128-  67 1.88  65 1.90  49 1.90  52 1.93  55 1.94  73 1.95  17 2.78  14 2.80
                             9 2.85  29 2.86  27 2.86  35 2.90
  34  0.332  0.221  0.118-  59 1.90  53 1.90  69 1.90  61 1.91  77 1.93  71 1.93  14 2.83  31 2.83
                            35 2.84  29 2.85  10 2.87  17 2.89
  35  0.169  0.390  0.127-  79 1.89  58 1.91  61 1.92  71 1.92  73 1.93  55 1.93  17 2.80  13 2.84
                            34 2.84  27 2.84  29 2.89  33 2.90
  36  0.001  0.779  0.624-  86 1.90  98 1.90 116 1.91 108 1.92  96 1.93 114 1.93  37 2.82  41 2.84
                            40 2.84  21 2.87  38 2.88  44 2.88
  37  0.333  0.779  0.620-  86 1.88  92 1.89 104 1.91  84 1.92 114 1.92 102 1.93  36 2.82  41 2.82
                            22 2.82  21 2.85  44 2.86  26 2.91
  38  0.830  0.609  0.629- 100 1.88  88 1.90  90 1.92 108 1.92 106 1.92  96 1.94  26 2.80  20 2.83
                            41 2.85  43 2.86  36 2.88  44 2.88
  39  0.333  0.112  0.627-  99 1.89 105 1.90  89 1.92  87 1.92 107 1.92  95 1.93  21 2.78  19 2.78
                            22 2.79  18 2.80  42 2.83  25 2.88
  40  0.834  0.947  0.619-  81 1.90  93 1.90 111 1.91 116 1.92  98 1.92 110 1.93  42 2.84  36 2.84
                            21 2.84  19 2.85  41 2.86  22 2.86
  41  0.666  0.778  0.628- 108 1.90 102 1.91 110 1.91  92 1.92  90 1.92  98 1.92  37 2.82  36 2.84
                            38 2.85  40 2.86  22 2.86  26 2.89
  42  0.667  0.114  0.625- 113 1.90  83 1.91 105 1.91  95 1.92 111 1.93  93 1.94  24 2.78  39 2.83
                            40 2.84  22 2.85  25 2.85  19 2.87
  43  0.001  0.441  0.620-  91 1.87 109 1.90 103 1.90  88 1.92  94 1.92 106 1.96  24 2.78  18 2.79
                            44 2.86  38 2.86  23 2.88  20 2.89
  44  0.171  0.609  0.628- 112 1.88  94 1.89  84 1.92 106 1.92  96 1.94 114 1.94  26 2.79  23 2.83
                            43 2.86  37 2.86  36 2.88  38 2.88
  45  0.998  0.998  0.032-  15 1.90  10 1.90  12 1.90
  46  0.498  0.500  0.035-   9 1.88  13 1.88  17 1.90
  47  0.830  0.166  0.041-  29 1.88  14 1.91  15 1.92
  48  0.330  0.668  0.037-  11 1.90  13 1.93  30 1.93
  49  0.664  0.334  0.040-  33 1.90  14 1.93  17 1.93
  50  0.169  0.833  0.043-  30 1.90  28 1.92  12 1.96
  51  0.332  0.997  0.042-  28 1.90  31 1.91  10 1.92
  52  0.830  0.498  0.038-  27 1.90  33 1.93   9 1.96
  53  0.162  0.165  0.039-  34 1.90  29 1.91  10 1.92
  54  0.664  0.666  0.036-  11 1.87   9 1.91  32 1.91
  55  0.998  0.334  0.042-  35 1.93  29 1.93  33 1.94
  56  0.500  0.832  0.043-  11 1.92  28 1.93  16 1.94
  57  0.668  0.998  0.035-  15 1.91  16 1.92  31 1.92
  58  0.165  0.499  0.037-  35 1.91  27 1.91  13 1.97
  59  0.499  0.167  0.035-  34 1.90  31 1.93  14 1.94
  60  1.000  0.668  0.038-  27 1.89  30 1.92  32 1.93
  61  0.332  0.334  0.037-  34 1.91  35 1.92  17 1.95
  62  0.833  0.835  0.037-  16 1.91  32 1.91  12 1.93
  63  0.997  0.109  0.211-  29 1.91  15 1.92  10 1.92
  64  0.499  0.610  0.215-   9 1.90  13 1.90  11 1.91
  65  0.832  0.277  0.212-  33 1.90  14 1.91  29 1.91
  66  0.335  0.774  0.214-  30 1.91  28 1.93  11 1.95
  67  0.665  0.446  0.212-  33 1.88  17 1.89   9 1.91
  68  0.164  0.944  0.212-  12 1.89  10 1.90  28 1.91
  69  0.332  0.111  0.206-  34 1.90  31 1.93  10 1.96
  70  0.832  0.611  0.207-  27 1.91  32 1.93   9 1.96
  71  0.169  0.277  0.209-  35 1.92  34 1.93  29 1.95
  72  0.664  0.776  0.210-  32 1.90  11 1.92  16 1.93
  73  0.999  0.447  0.211-  27 1.93  35 1.93  33 1.95
  74  0.502  0.946  0.211-  28 1.89  31 1.91  16 1.92
  75  0.668  0.108  0.209-  31 1.91  14 1.92  15 1.94
  76  0.164  0.610  0.209-  30 1.91  27 1.92  13 1.96
  77  0.495  0.277  0.209-  14 1.91  34 1.93  17 1.94
  78  0.996  0.778  0.208-  30 1.90  32 1.91  12 1.92
  79  0.332  0.446  0.211-  35 1.89  17 1.90  13 1.90
  80  0.833  0.945  0.216-  16 1.89  12 1.90  15 1.92
  81  1.000  0.003  0.536-  40 1.90  21 1.93  19 1.93
  82  0.501  0.500  0.538-  23 1.89  26 1.89  20 1.89
  83  0.834  0.167  0.538-  24 1.91  42 1.91  19 1.93
  84  0.334  0.665  0.540-  44 1.92  37 1.92  26 1.95
  85  0.667  0.334  0.538-  25 1.88  20 1.89  24 1.90
  86  0.166  0.834  0.539-  37 1.88  36 1.90  21 1.95
  87  0.333  0.003  0.537-  21 1.88  22 1.89  39 1.92
  88  0.833  0.501  0.539-  38 1.90  43 1.92  20 1.97
  89  0.171  0.168  0.537-  18 1.90  39 1.92  19 1.92
  90  0.665  0.666  0.542-  38 1.92  41 1.92  26 1.94
  91  0.002  0.332  0.537-  43 1.87  24 1.92  18 1.92
  92  0.501  0.832  0.537-  37 1.89  41 1.92  22 1.96
  93  0.667  0.003  0.536-  40 1.90  42 1.94  22 1.94
  94  0.168  0.501  0.538-  44 1.89  43 1.92  23 1.97
  95  0.500  0.169  0.539-  42 1.92  39 1.93  25 1.94
  96  0.001  0.665  0.542-  36 1.93  44 1.94  38 1.94
  97  0.332  0.334  0.537-  25 1.89  23 1.91  18 1.94
  98  0.832  0.832  0.539-  36 1.90  40 1.92  41 1.92
  99  0.169  0.057  0.711-  39 1.89  21 1.90  19 1.90
 100  0.667  0.553  0.713-  38 1.88  26 1.89  20 1.92
 101  0.999  0.223  0.710-  19 1.89  18 1.89  24 1.91
 102  0.497  0.723  0.711-  41 1.91  37 1.93  26 1.97
 103  0.836  0.389  0.709-  43 1.90  24 1.91  20 1.94
 104  0.333  0.889  0.708-  37 1.91  22 1.91  21 1.92
 105  0.501  0.056  0.709-  22 1.90  39 1.90  42 1.91
 106  0.001  0.552  0.712-  44 1.92  38 1.92  43 1.96
 107  0.336  0.224  0.712-  18 1.91  39 1.92  25 1.94
 108  0.834  0.723  0.711-  41 1.90  38 1.92  36 1.92
 109  0.166  0.389  0.709-  43 1.90  18 1.91  23 1.94
 110  0.668  0.891  0.708-  41 1.91  40 1.93  22 1.95
 111  0.834  0.055  0.709-  40 1.91  42 1.93  19 1.95
 112  0.333  0.553  0.713-  44 1.88  26 1.89  23 1.91
 113  0.664  0.224  0.711-  42 1.90  24 1.93  25 1.93
 114  0.170  0.723  0.711-  37 1.92  36 1.93  44 1.94
 115  0.500  0.388  0.717-  25 1.90  23 1.90  20 1.90
 116  0.998  0.891  0.708-  36 1.91  40 1.92  21 1.95
 
  LATTYP: Found a triclinic cell.
 ALAT       =    11.6491751631
 B/A-ratio  =     1.6078016654
 C/A-ratio  =     0.7278033661
 COS(alpha) =     0.0004802173
 COS(beta)  =     0.0013936799
 COS(gamma) =     0.6212161953
  
  Lattice vectors:
  
 A1 = (   0.0128104904,  -0.0071184229, -11.6491659444)
 A2 = (   0.0091161731,  14.6701074269, -11.6440716107)
 A3 = (   8.4783082831,  -0.0020478570,  -0.0024912821)


Analysis of symmetry for initial positions (statically):
=====================================================================
 Subroutine PRICEL returns:
 Original cell was already a primitive cell.
 

 Routine SETGRP: Setting up the symmetry group for a 
 triclinic supercell.


 Subroutine GETGRP returns: Found  1 space group operations
 (whereof  1 operations were pure point group operations)
 out of a pool of  2 trial point group operations.


The static configuration has the point symmetry C_1 .


Analysis of symmetry for dynamics (positions and initial velocities):
=====================================================================
 Subroutine PRICEL returns:
 Original cell was already a primitive cell.
 

 Routine SETGRP: Setting up the symmetry group for a 
 triclinic supercell.


 Subroutine GETGRP returns: Found  1 space group operations
 (whereof  1 operations were pure point group operations)
 out of a pool of  2 trial point group operations.


The dynamic configuration has the point symmetry C_1 .


Analysis of structural, dynamic, and magnetic symmetry:
=====================================================================
 Subroutine PRICEL returns:
 Original cell was already a primitive cell.
 

 Routine SETGRP: Setting up the symmetry group for a 
 triclinic supercell.


 Subroutine GETGRP returns: Found  1 space group operations
 (whereof  1 operations were pure point group operations)
 out of a pool of  2 trial point group operations.


The overall configuration has the point symmetry C_1 .


 Subroutine INISYM returns: Found  1 space group operations
 (whereof  1 operations are pure point group operations),
 and found     1 'primitive' translations


----------------------------------------------------------------------------------------

                                     Primitive cell                                     

  volume of cell :    1449.5986

  direct lattice vectors                    reciprocal lattice vectors
     8.478308283 -0.002047857 -0.002491282     0.117948104  0.000029643  0.000129688
    -0.003694317 14.677225850  0.005094334     0.000016445  0.068132785 -0.000041616
    -0.012810490  0.007118423 11.649165944     0.000025217 -0.000029789  0.085843102

  length of vectors
     8.478308896 14.677227199 11.649175163     0.117948179  0.068132800  0.085843110

  position of ions in fractional coordinates (direct lattice)
     0.834559612  0.059847320  0.375229332
     0.998259316  0.555118766  0.376660896
     0.335570081  0.225411408  0.376780998
     0.502750761  0.720923243  0.377210584
     0.336970394  0.778973298  0.878884235
     0.503900285  0.277351139  0.877263467
     0.833144967  0.946662398  0.875695513
     0.997587529  0.441121034  0.876388169
     0.657050988  0.555349326  0.123241421
     0.159851588  0.052292339  0.122591384
     0.500446896  0.717379847  0.122319827
     0.996378982  0.892235089  0.126923037
     0.339511843  0.555807754  0.123178920
     0.665083131  0.221969630  0.126985985
     0.835494596  0.051705102  0.121547662
     0.671487578  0.889839552  0.127621902
     0.499320264  0.392174845  0.126689481
     0.166691082  0.276488755  0.626133226
     0.005072116  0.113265671  0.625088803
     0.660508830  0.442617316  0.625464126
     0.169181013  0.948551992  0.622455995
     0.496430203  0.946799340  0.621690999
     0.340821486  0.443121906  0.625233674
     0.832479632  0.277977638  0.623029189
     0.500107449  0.282930855  0.622511936
     0.499807772  0.606094701  0.629215670
     0.997186482  0.556096414  0.119452958
     0.334495110  0.888988167  0.131427714
     0.995665037  0.219904657  0.125062707
     0.165319503  0.722506163  0.127408484
     0.501812893  0.054567466  0.121771155
     0.829505364  0.723428007  0.121547626
     0.826699719  0.388153782  0.128329935
     0.331894691  0.220718060  0.118424882
     0.168665606  0.389641369  0.126522864
     0.000832807  0.778660984  0.624061409
     0.333154511  0.779147827  0.620161530
     0.830438601  0.608959541  0.629133463
     0.333393118  0.112171320  0.626812568
     0.833803387  0.946506697  0.619185230
     0.665598213  0.777945064  0.627589974
     0.666862740  0.114207885  0.625270283
     0.000731304  0.440603571  0.619875033
     0.170668169  0.608578311  0.628034321
     0.998147082  0.998038850  0.032306264
     0.498034689  0.499739397  0.035208201
     0.830493563  0.165799627  0.040844469
     0.330452473  0.667656781  0.036833550
     0.663886919  0.333535739  0.039772918
     0.168911774  0.833413426  0.042654426
     0.331865060  0.997048884  0.042030117
     0.830481122  0.498418892  0.038001414
     0.161777948  0.165330115  0.038849767
     0.664399210  0.665831059  0.036301526
     0.997684936  0.334014329  0.041808742
     0.499993602  0.832386798  0.043491834
     0.667600608  0.998034782  0.035475120
     0.165086138  0.498563493  0.037423136
     0.499469346  0.166907979  0.034994934
     0.999758996  0.667696762  0.038020759
     0.331970676  0.334185424  0.037177779
     0.832665310  0.835031238  0.037189433
     0.996693401  0.109296921  0.211317181
     0.499222069  0.610416788  0.215224181
     0.832299735  0.277105981  0.211755585
     0.334663859  0.774460015  0.213527495
     0.664941195  0.445645522  0.212102839
     0.163995091  0.944410988  0.212275194
     0.332397448  0.111232362  0.206025031
     0.832491247  0.610908195  0.207104772
     0.168876212  0.276548476  0.209453243
     0.663713947  0.775775827  0.209639408
     0.999122814  0.446577264  0.210561838
     0.502279657  0.945899814  0.211358957
     0.668186127  0.108498490  0.208834606
     0.163690421  0.609781855  0.208776932
     0.495193583  0.277047280  0.209065554
     0.996398677  0.778066859  0.208125375
     0.331926267  0.446359736  0.210567973
     0.833064221  0.944841108  0.216249321
     0.999903268  0.002745526  0.535636616
     0.500756127  0.499708043  0.538144185
     0.834346645  0.166903609  0.538169448
     0.334462194  0.664991983  0.539856800
     0.667156955  0.334073041  0.537778171
     0.165842839  0.833514558  0.538772353
     0.332826283  0.002534240  0.537244387
     0.833143105  0.500819340  0.538971974
     0.170667254  0.167974116  0.536770307
     0.665415211  0.665997028  0.542350376
     0.001654800  0.331531735  0.537041791
     0.501366808  0.831500964  0.536511267
     0.667317921  0.003088565  0.536015765
     0.167821786  0.500933940  0.538450332
     0.499774799  0.169054736  0.538646066
     0.000569601  0.664721021  0.542294217
     0.332453646  0.333640642  0.536890813
     0.832497311  0.832381727  0.539422746
     0.168945727  0.056995757  0.711271945
     0.667356600  0.552914533  0.713160307
     0.998707720  0.223215941  0.709642238
     0.496970405  0.723258837  0.711032099
     0.835623147  0.388941048  0.709128919
     0.333221082  0.888906435  0.708450771
     0.501283725  0.056005790  0.708992855
     0.000988918  0.552457624  0.711577097
     0.335772630  0.224221440  0.711585949
     0.833650116  0.722644123  0.710608073
     0.166203249  0.389072606  0.709070242
     0.668234284  0.891021567  0.708057131
     0.833906815  0.054966195  0.708907277
     0.332751629  0.552666601  0.713413988
     0.664048482  0.224280233  0.710747442
     0.169550906  0.723411520  0.710646149
     0.500386543  0.388353261  0.716802523
     0.997860335  0.890625767  0.707787949

  ion indices of the primitive-cell ions
   primitive index   ion index
                 1           1
                 2           2
                 3           3
                 4           4
                 5           5
                 6           6
                 7           7
                 8           8
                 9           9
                10          10
                11          11
                12          12
                13          13
                14          14
                15          15
                16          16
                17          17
                18          18
                19          19
                20          20
                21          21
                22          22
                23          23
                24          24
                25          25
                26          26
                27          27
                28          28
                29          29
                30          30
                31          31
                32          32
                33          33
                34          34
                35          35
                36          36
                37          37
                38          38
                39          39
                40          40
                41          41
                42          42
                43          43
                44          44
                45          45
                46          46
                47          47
                48          48
                49          49
                50          50
                51          51
                52          52
                53          53
                54          54
                55          55
                56          56
                57          57
                58          58
                59          59
                60          60
                61          61
                62          62
                63          63
                64          64
                65          65
                66          66
                67          67
                68          68
                69          69
                70          70
                71          71
                72          72
                73          73
                74          74
                75          75
                76          76
                77          77
                78          78
                79          79
                80          80
                81          81
                82          82
                83          83
                84          84
                85          85
                86          86
                87          87
                88          88
                89          89
                90          90
                91          91
                92          92
                93          93
                94          94
                95          95
                96          96
                97          97
                98          98
                99          99
               100         100
               101         101
               102         102
               103         103
               104         104
               105         105
               106         106
               107         107
               108         108
               109         109
               110         110
               111         111
               112         112
               113         113
               114         114
               115         115
               116         116

----------------------------------------------------------------------------------------

 
 
 KPOINTS: K-Spacing Value to Generate K-Mesh: 0.04

Automatic generation of k-mesh.
 Grid dimensions read from file:
 generate k-points for:    3    2    1

 Generating k-lattice:

  Cartesian coordinates                     Fractional coordinates (reciprocal lattice)
     0.039316035  0.000009881  0.000043229     0.333333333  0.000000000 -0.000000000
     0.000008222  0.034066392 -0.000020808    -0.000000000  0.500000000  0.000000000
     0.000025217 -0.000029789  0.085843102    -0.000000000 -0.000000000  1.000000000

  Length of vectors
     0.039316060  0.034066400  0.085843110

  Shift w.r.t. Gamma in fractional coordinates (k-lattice)
     0.000000000  0.000000000  0.000000000

 
 Subroutine IBZKPT returns following result:
 ===========================================
 
 Found      4 irreducible k-points:
 
 Following reciprocal coordinates:
            Coordinates               Weight
  0.000000  0.000000  0.000000      1.000000
  0.333333  0.000000 -0.000000      2.000000
  0.000000  0.500000  0.000000      1.000000
  0.333333  0.500000  0.000000      2.000000
 
 Following cartesian coordinates:
            Coordinates               Weight
  0.000000  0.000000  0.000000      1.000000
  0.039316  0.000010  0.000043      2.000000
  0.000008  0.034066 -0.000021      1.000000
  0.039324  0.034076  0.000022      2.000000
 


--------------------------------------------------------------------------------------------------------




 Dimension of arrays:
   k-points           NKPTS =      4   k-points in BZ     NKDIM =      4   number of bands    NBANDS=    600
   number of dos      NEDOS =    301   number of ions     NIONS =    116
   non local maximal  LDIM  =      6   non local SUM 2l+1 LMDIM =     18
   total plane-waves  NPLWV = 907200
   max r-space proj   IRMAX =   6962   max aug-charges    IRDMAX= 178525
   dimension x,y,z NGX =    72 NGY =  126 NGZ =  100
   dimension x,y,z NGXF=   144 NGYF=  252 NGZF=  200
   support grid    NGXF=   288 NGYF=  504 NGZF=  400
   ions per type =               8  18  18  72
   NGX,Y,Z   is equivalent  to a cutoff of  14.12, 14.27, 14.27 a.u.
   NGXF,Y,Z  is equivalent  to a cutoff of  28.24, 28.54, 28.54 a.u.

 SYSTEM =  NFMO_O2                                 
 POSCAR =   Sodio_gutxiago                         

 Startparameter for this run:
   NWRITE =      2    write-flag & timer
   PREC   = accura    normal or accurate (medium, high low for compatibility)
   ISTART =      1    job   : 0-new  1-cont  2-samecut
   ICHARG =      1    charge: 1-file 2-atom 10-const
   ISPIN  =      2    spin polarized calculation?
   LNONCOLLINEAR =      F non collinear calculations
   LSORBIT =      F    spin-orbit coupling
   INIWAV =      1    electr: 0-lowe 1-rand  2-diag
   LASPH  =      T    aspherical Exc in radial PAW
 Electronic Relaxation 1
   ENCUT  =  680.0 eV  49.98 Ry    7.07 a.u.  18.03 31.21 24.77*2*pi/ulx,y,z
   ENINI  =  680.0     initial cutoff
   ENAUG  =  605.4 eV  augmentation charge cutoff
   NELM   =    350;   NELMIN=  2; NELMDL=  0     # of ELM steps 
   EDIFF  = 0.1E-04   stopping-criterion for ELM
   LREAL  =      T    real-space projection
   NLSPLINE    = F    spline interpolate recip. space projectors
   LCOMPAT=      F    compatible to vasp.4.4
   GGA_COMPAT  = T    GGA compatible to vasp.4.4-vasp.4.6
   LMAXPAW     = -100 max onsite density
   LMAXMIX     =    6 max onsite mixed and CHGCAR
   VOSKOWN=      0    Vosko Wilk Nusair interpolation
   ROPT   =   -0.00025  -0.00025  -0.00025  -0.00025
 Ionic relaxation
   EDIFFG = -.1E-01   stopping-criterion for IOM
   NSW    =      0    number of steps for IOM
   NBLOCK =      1;   KBLOCK =      1    inner block; outer block 
   IBRION =     -1    ionic relax: 0-MD 1-quasi-New 2-CG
   NFREE  =      0    steps in history (QN), initial steepest desc. (CG)
   ISIF   =      3    stress and relaxation
   IWAVPR =     10    prediction:  0-non 1-charg 2-wave 3-comb
   ISYM   =      2    0-nonsym 1-usesym 2-fastsym
   LCORR  =      T    Harris-Foulkes like correction to forces

   POTIM  = 0.5000    time-step for ionic-motion
   TEIN   =    0.0    initial temperature
   TEBEG  =    0.0;   TEEND  =   0.0 temperature during run
   SMASS  =  -3.00    Nose mass-parameter (am)
   estimated Nose-frequenzy (Omega)   =  0.10E-29 period in steps = 0.13E+47 mass=  -0.164E-26a.u.
   SCALEE = 1.0000    scale energy and forces
   NPACO  =    256;   APACO  = 10.0  distance and # of slots for P.C.
   PSTRESS=    0.0 pullay stress

  Mass of Ions in am
   POMASS =  22.99 55.85 54.94 16.00
  Ionic Valenz
   ZVAL   =   7.00  8.00 13.00  6.00
  Atomic Wigner-Seitz radii
   RWIGS  =  -1.00 -1.00 -1.00 -1.00
  virtual crystal weights 
   VCA    =   1.00  1.00  1.00  1.00
   NELECT =     866.0000    total number of electrons
   NUPDOWN=      -1.0000    fix difference up-down

 DOS related values:
   EMIN   =  10.00;   EMAX   =-10.00  energy-range for DOS
   EFERMI =   0.00
   ISMEAR =     0;   SIGMA  =   0.05  broadening in eV -4-tet -1-fermi 0-gaus

 Electronic relaxation 2 (details)
   IALGO  =     38    algorithm
   LDIAG  =      T    sub-space diagonalisation (order eigenvalues)
   LSUBROT=      F    optimize rotation matrix (better conditioning)
   TURBO    =      0    0=normal 1=particle mesh
   IRESTART =      0    0=no restart 2=restart with 2 vectors
   NREBOOT  =      0    no. of reboots
   NMIN     =      0    reboot dimension
   EREF     =   0.00    reference energy to select bands
   IMIX   =      4    mixing-type and parameters
     AMIX     =   0.40;   BMIX     =  1.00
     AMIX_MAG =   1.60;   BMIX_MAG =  1.00
     AMIN     =   0.10
     WC   =   100.;   INIMIX=   1;  MIXPRE=   1;  MAXMIX= -45

 Intra band minimization:
   WEIMIN = 0.0000     energy-eigenvalue tresh-hold
   EBREAK =  0.42E-08  absolut break condition
   DEPER  =   0.30     relativ break condition  

   TIME   =   0.40     timestep for ELM

  volume/ion in A,a.u.               =      12.50        84.33
  Fermi-wavevector in a.u.,A,eV,Ry     =   1.378790  2.605536 25.865527  1.901063
  Thomas-Fermi vector in A             =   2.503819
 
 Write flags
   LWAVE        =      T    write WAVECAR
   LDOWNSAMPLE  =      F    k-point downsampling of WAVECAR
   LCHARG       =      T    write CHGCAR
   LVTOT        =      F    write LOCPOT, total local potential
   LVHAR        =      F    write LOCPOT, Hartree potential only
   LELF         =      F    write electronic localiz. function (ELF)
   LORBIT       =     11    0 simple, 1 ext, 2 COOP (PROOUT), +10 PAW based schemes


 Dipole corrections
   LMONO  =      F    monopole corrections only (constant potential shift)
   LDIPOL =      F    correct potential (dipole corrections)
   IDIPOL =      0    1-x, 2-y, 3-z, 4-all directions 
   EPSILON=  1.0000000 bulk dielectric constant

 Exchange correlation treatment:
   GGA     =    --    GGA type
   LEXCH   =     8    internal setting for exchange type
   LIBXC   =     F    Libxc                    
   VOSKOWN =     0    Vosko Wilk Nusair interpolation
   LHFCALC =     F    Hartree Fock is set to
   LHFONE  =     F    Hartree Fock one center treatment
   AEXX    =    0.0000 exact exchange contribution

 Linear response parameters
   LEPSILON=     F    determine dielectric tensor
   LRPA    =     F    only Hartree local field effects (RPA)
   LNABLA  =     F    use nabla operator in PAW spheres
   LVEL    =     F    velocity operator in full k-point grid
   CSHIFT  =0.1000    complex shift for real part using Kramers Kronig
   OMEGAMAX=  -1.0    maximum frequency
   DEG_THRESHOLD= 0.2000000E-02 threshold for treating states as degnerate
   RTIME   =   -0.100 relaxation time in fs
  (WPLASMAI=    0.000 imaginary part of plasma frequency in eV, 0.658/RTIME)
   DFIELD  = 0.0000000 0.0000000 0.0000000 field for delta impulse in time
 
  Optional k-point grid parameters
   LKPOINTS_OPT  =     F    use optional k-point grid
   KPOINTS_OPT_MODE=     1    mode for optional k-point grid
 
 Orbital magnetization related:
   ORBITALMAG=     F  switch on orbital magnetization
   LCHIMAG   =     F  perturbation theory with respect to B field
   DQ        =  0.001000  dq finite difference perturbation B field
   LLRAUG    =     F  two centre corrections for induced B field



--------------------------------------------------------------------------------------------------------


 Static calculation
 charge density and potential will be updated during run
 spin polarized calculation
 Variant of blocked Davidson
 Davidson routine will perform the subspace rotation
 perform sub-space diagonalisation
    after iterative eigenvector-optimisation
 modified Broyden-mixing scheme, WC =      100.0
 initial mixing is a Kerker type mixing with AMIX =  0.4000 and BMIX =      1.0000
 Hartree-type preconditioning will be used
 using additional bands          167
 real space projection scheme for non local part
 use partial core corrections
 calculate Harris-corrections to forces 
   (improved forces if not selfconsistent)
 use gradient corrections 
 use of overlap-Matrix (Vanderbilt PP)
 Gauss-broadening in eV      SIGMA  =   0.05


--------------------------------------------------------------------------------------------------------


  energy-cutoff  :      680.00
  volume of cell :     1449.60
      direct lattice vectors                 reciprocal lattice vectors
     8.478308283 -0.002047857 -0.002491282     0.117948104  0.000029643  0.000129688
    -0.003694317 14.677225850  0.005094334     0.000016445  0.068132785 -0.000041616
    -0.012810490  0.007118423 11.649165944     0.000025217 -0.000029789  0.085843102

  length of vectors
     8.478308896 14.677227199 11.649175163     0.117948179  0.068132800  0.085843110


 
 old parameters found on file WAVECAR:
  energy-cutoff  :      680.00
  volume of cell :     1449.60
      direct lattice vectors                 reciprocal lattice vectors
     8.478308283 -0.002047857 -0.002491282     0.117948104  0.000029643  0.000129688
    -0.003694317 14.677225850  0.005094334     0.000016445  0.068132785 -0.000041616
    -0.012810490  0.007118423 11.649165944     0.000025217 -0.000029789  0.085843102

  length of vectors

 
 k-points in units of 2pi/SCALE and weight: K-Spacing Value to Generate K-Mesh: 0.04
   0.00000000  0.00000000  0.00000000       0.167
   0.03931603  0.00000988  0.00004323       0.333
   0.00000822  0.03406639 -0.00002081       0.167
   0.03932426  0.03407627  0.00002242       0.333
 
 k-points in reciprocal lattice and weights: K-Spacing Value to Generate K-Mesh: 0.04
   0.00000000  0.00000000  0.00000000       0.167
   0.33333333  0.00000000 -0.00000000       0.333
   0.00000000  0.50000000  0.00000000       0.167
   0.33333333  0.50000000  0.00000000       0.333
 
 position of ions in fractional coordinates (direct lattice) 
   0.83455961  0.05984732  0.37522933
   0.99825932  0.55511877  0.37666090
   0.33557008  0.22541141  0.37678100
   0.50275076  0.72092324  0.37721058
   0.33697039  0.77897330  0.87888424
   0.50390028  0.27735114  0.87726347
   0.83314497  0.94666240  0.87569551
   0.99758753  0.44112103  0.87638817
   0.65705099  0.55534933  0.12324142
   0.15985159  0.05229234  0.12259138
   0.50044690  0.71737985  0.12231983
   0.99637898  0.89223509  0.12692304
   0.33951184  0.55580775  0.12317892
   0.66508313  0.22196963  0.12698599
   0.83549460  0.05170510  0.12154766
   0.67148758  0.88983955  0.12762190
   0.49932026  0.39217485  0.12668948
   0.16669108  0.27648876  0.62613323
   0.00507212  0.11326567  0.62508880
   0.66050883  0.44261732  0.62546413
   0.16918101  0.94855199  0.62245600
   0.49643020  0.94679934  0.62169100
   0.34082149  0.44312191  0.62523367
   0.83247963  0.27797764  0.62302919
   0.50010745  0.28293086  0.62251194
   0.49980777  0.60609470  0.62921567
   0.99718648  0.55609641  0.11945296
   0.33449511  0.88898817  0.13142771
   0.99566504  0.21990466  0.12506271
   0.16531950  0.72250616  0.12740848
   0.50181289  0.05456747  0.12177115
   0.82950536  0.72342801  0.12154763
   0.82669972  0.38815378  0.12832993
   0.33189469  0.22071806  0.11842488
   0.16866561  0.38964137  0.12652286
   0.00083281  0.77866098  0.62406141
   0.33315451  0.77914783  0.62016153
   0.83043860  0.60895954  0.62913346
   0.33339312  0.11217132  0.62681257
   0.83380339  0.94650670  0.61918523
   0.66559821  0.77794506  0.62758997
   0.66686274  0.11420788  0.62527028
   0.00073130  0.44060357  0.61987503
   0.17066817  0.60857831  0.62803432
   0.99814708  0.99803885  0.03230626
   0.49803469  0.49973940  0.03520820
   0.83049356  0.16579963  0.04084447
   0.33045247  0.66765678  0.03683355
   0.66388692  0.33353574  0.03977292
   0.16891177  0.83341343  0.04265443
   0.33186506  0.99704888  0.04203012
   0.83048112  0.49841889  0.03800141
   0.16177795  0.16533012  0.03884977
   0.66439921  0.66583106  0.03630153
   0.99768494  0.33401433  0.04180874
   0.49999360  0.83238680  0.04349183
   0.66760061  0.99803478  0.03547512
   0.16508614  0.49856349  0.03742314
   0.49946935  0.16690798  0.03499493
   0.99975900  0.66769676  0.03802076
   0.33197068  0.33418542  0.03717778
   0.83266531  0.83503124  0.03718943
   0.99669340  0.10929692  0.21131718
   0.49922207  0.61041679  0.21522418
   0.83229974  0.27710598  0.21175559
   0.33466386  0.77446002  0.21352749
   0.66494120  0.44564552  0.21210284
   0.16399509  0.94441099  0.21227519
   0.33239745  0.11123236  0.20602503
   0.83249125  0.61090820  0.20710477
   0.16887621  0.27654848  0.20945324
   0.66371395  0.77577583  0.20963941
   0.99912281  0.44657726  0.21056184
   0.50227966  0.94589981  0.21135896
   0.66818613  0.10849849  0.20883461
   0.16369042  0.60978185  0.20877693
   0.49519358  0.27704728  0.20906555
   0.99639868  0.77806686  0.20812537
   0.33192627  0.44635974  0.21056797
   0.83306422  0.94484111  0.21624932
   0.99990327  0.00274553  0.53563662
   0.50075613  0.49970804  0.53814418
   0.83434665  0.16690361  0.53816945
   0.33446219  0.66499198  0.53985680
   0.66715696  0.33407304  0.53777817
   0.16584284  0.83351456  0.53877235
   0.33282628  0.00253424  0.53724439
   0.83314310  0.50081934  0.53897197
   0.17066725  0.16797412  0.53677031
   0.66541521  0.66599703  0.54235038
   0.00165480  0.33153174  0.53704179
   0.50136681  0.83150096  0.53651127
   0.66731792  0.00308856  0.53601577
   0.16782179  0.50093394  0.53845033
   0.49977480  0.16905474  0.53864607
   0.00056960  0.66472102  0.54229422
   0.33245365  0.33364064  0.53689081
   0.83249731  0.83238173  0.53942275
   0.16894573  0.05699576  0.71127195
   0.66735660  0.55291453  0.71316031
   0.99870772  0.22321594  0.70964224
   0.49697041  0.72325884  0.71103210
   0.83562315  0.38894105  0.70912892
   0.33322108  0.88890643  0.70845077
   0.50128372  0.05600579  0.70899285
   0.00098892  0.55245762  0.71157710
   0.33577263  0.22422144  0.71158595
   0.83365012  0.72264412  0.71060807
   0.16620325  0.38907261  0.70907024
   0.66823428  0.89102157  0.70805713
   0.83390681  0.05496620  0.70890728
   0.33275163  0.55266660  0.71341399
   0.66404848  0.22428023  0.71074744
   0.16955091  0.72341152  0.71064615
   0.50038654  0.38835326  0.71680252
   0.99786033  0.89062577  0.70778795
 
 position of ions in cartesian coordinates  (Angst):
   7.07062570  0.87935462  4.36933451
   8.45667423  8.14824044  4.38812630
   2.83940710  3.31040903  4.38949669
   4.25498037 10.58280884  4.39660882
   2.84280217 11.43873323 10.24139717
   4.25995916  4.07595812 10.21954526
   7.04894452 13.89890523 10.20386937
   8.44499801  6.47862862 10.20895316
   5.56705041  8.15051923  1.43685200
   1.35350740  0.76805178  1.42795554
   4.23872586 10.52899192  1.42733178
   8.44268603 13.09439896  1.48061060
   2.87485476  8.15789750  1.43691733
   5.63633304  3.25744033  1.47875469
   7.08183265  0.75804171  1.41411084
   5.68815645 13.05990943  1.48954899
   4.23031936  5.75591807  1.47658071
   1.40421587  4.06220363  7.29492310
   0.03457683  1.66686510  7.28232757
   5.59034982  6.49949401  7.28674473
   1.42289056 13.92619627  7.25550394
   4.19742636 13.89979659  7.24576818
   2.87994305  6.50755301  7.28485916
   7.04901071  4.08267076  7.25711258
   4.23104521  4.15604722  7.25194028
   4.22722471  8.89924430  7.33168024
   8.45086977  8.16076088  1.39187599
   2.83098480 13.04813066  1.53471873
   8.43914062  3.22644158  1.45551601
   1.39732838 10.60495453  1.48747141
   4.25276287  0.80073820  1.41756021
   7.02857255 10.61708276  1.41754732
   7.00593714  5.69624126  1.49485455
   2.81157302  3.23969215  1.37984867
   1.42693873  5.71940961  1.47545061
  -0.00381036 11.43302376  7.27375960
   2.81376366 11.43946095  7.22750383
   7.03040527  8.94061454  7.32991349
   2.81816546  1.65014297  7.30158448
   7.05781340 13.89479268  7.21573608
   5.63223313 11.42117980  7.31320467
   5.64543595  1.67934022  7.28279775
  -0.00336841  6.47124915  7.22326989
   1.43668364  8.93636243  7.31875114
   8.45849774 14.64662751  0.37893871
   4.22019440  7.33401873  0.41145127
   7.04004470  2.43206858  0.47457964
   2.79873955  9.79893484  0.43165815
   5.62689627  4.89430294  0.46336653
   1.42846078 12.23215480  0.50071337
   2.80943245 14.63353122  0.49386833
   7.03874684  7.31397646  0.44315492
   1.37049485  2.42653269  0.45300660
   5.63005649  9.77145064  0.42461926
   8.45691091  4.90065824  0.48625304
   4.23546765 12.21641471  0.50963842
   5.65598225 14.64726728  0.41667670
   1.39732991  7.31745730  0.43807689
   4.23359018  2.44897237  0.40726776
   8.47331123  9.79815946  0.44382092
   2.81283888  4.90449976  0.43396554
   7.05603191 12.25450162  0.43540540
   8.44716306  1.60363876  2.45974266
   4.22754640  8.95973479  2.50904816
   7.05275733  4.06695000  2.46611413
   2.83178688 11.36775919  2.49052883
   5.63321295  6.54098811  2.47143488
   1.38419264 13.86250859  2.47723155
   2.81511783  1.63336837  2.39975834
   7.05320743  8.96620699  2.41363606
   1.42807973  4.06010959  2.44094370
   5.62161991 11.38637013  2.44442281
   8.46652403  6.55396817  2.45265571
   4.25227971 13.88366115  2.46572298
   5.66201188  1.59257507  2.43163707
   1.38289059  8.95105695  2.43477576
   4.19470212  4.06675963  2.43561703
   8.44223454 11.41930406  2.42596845
   2.80982674  6.55214183  2.45438824
   7.05671448 13.86747969  2.52186216
   8.47061625  0.04206193  6.23724277
   4.23682485  7.33713307  6.27022907
   7.06633726  2.45180426  6.26799687
   2.82630107  9.76339553  6.29143590
   5.64823897  4.90572736  6.26470696
   1.39608551 12.23717700  6.28008159
   2.81491211  0.04033836  6.25763276
   7.05488941  7.35276904  6.27904971
   1.43947275  2.46886549  6.25335692
   5.63218711  9.77748680  6.31966461
   0.00592535  4.86978566  6.25777375
   4.24079756 12.20691983  6.25289567
   5.65084903  0.04778058  6.24248985
   1.41409641  7.35580981  6.27463111
   4.22971995  2.48406539  6.27439355
  -0.00457349  9.76011967  6.32066022
   2.81053409  4.90006005  6.25520162
   7.04818349 12.21918960  6.28599152
   1.42305166  0.84125675  8.28559439
   5.64687642  8.11896140  8.30887692
   8.45743644  3.27919710  8.26538926
   4.20168769 10.61947700  8.28537735
   7.07414949  5.71191224  8.26066007
   2.81279156 13.05104117  8.25655884
   4.24074851  0.82602999  8.25821189
  -0.00277226  8.11360860  8.29209162
   2.83683976  3.29532647  8.28968856
   7.05616977 10.60976221  8.27959589
   1.39860149  5.71521361  8.26164492
   5.65313399 13.08139658  8.25114942
   7.06083454  0.81008984  8.25638102
   2.80998998  8.11600948  8.31266443
   5.62007416  3.29551116  8.27910312
   1.42572862 10.62238572  8.28169782
   4.23181408  5.70402630  8.35088334
   8.44781018 13.07491040  8.24719046
 


--------------------------------------------------------------------------------------------------------


 k-point   1 :   0.0000 0.0000 0.0000  plane waves:   58379
 k-point   2 :   0.3333 0.0000-0.0000  plane waves:   58321
 k-point   3 :   0.0000 0.5000 0.0000  plane waves:   58390
 k-point   4 :   0.3333 0.5000 0.0000  plane waves:   58376

 maximum and minimum number of plane-waves per node :     29242    29096

 maximum number of plane-waves:     58390
 maximum index in each direction: 
   IXMAX=   18   IYMAX=   31   IZMAX=   24
   IXMIN=  -18   IYMIN=  -31   IZMIN=  -24


 real space projection operators:
  total allocation   :      50802.33 KBytes
  max/ min on nodes  :      25444.12      25358.20


 parallel 3D FFT for wavefunctions:
    minimum data exchange during FFTs selected (reduces bandwidth)
 parallel 3D FFT for charge:
    minimum data exchange during FFTs selected (reduces bandwidth)


 total amount of memory used by VASP MPI-rank0   238833. kBytes
=======================================================================

   base      :      30000. kBytes
   nonlr-proj:      44977. kBytes
   fftplans  :      27834. kBytes
   grid      :      76849. kBytes
   one-center:       1804. kBytes
   wavefun   :      57369. kBytes
 
     INWAV:  cpu time     10.1806: real time     10.7767
 Broyden mixing: mesh for mixing (old mesh)
   NGX = 37   NGY = 63   NGZ = 49
  (NGX  =144   NGY  =252   NGZ  =200)
  gives a total of 114219 points

 initial charge density was supplied:
 number of electron     866.0000016 magnetization      80.7842159
 keeping initial charge density in first step


--------------------------------------------------------------------------------------------------------


 Maximum index for non-local projection operator         3374
 Maximum index for augmentation-charges         3781 (set IRDMAX)


--------------------------------------------------------------------------------------------------------


 First call to EWALD:  gamma=   0.157
 Maximum number of real-space cells 4x 2x 3
 Maximum number of reciprocal cells 2x 3x 3

    FEWALD:  cpu time      0.0028: real time      0.0028


--------------------------------------- Iteration      1(   1)  ---------------------------------------


    POTLOK:  cpu time      0.3223: real time      0.4744
    SETDIJ:  cpu time      1.6035: real time      1.6329
     EDDAV:  cpu time     80.7018: real time     83.8096
       DOS:  cpu time      0.0109: real time      0.0364
    CHARGE:  cpu time      8.2812: real time      8.5383
    MIXING:  cpu time      0.0049: real time      0.0050
    --------------------------------------------
      LOOP:  cpu time     90.9246: real time     94.4965

 eigenvalue-minimisations  : 10320
 total energy-change (2. order) :-0.1417493E+04  (-0.5099997E+01)
 number of electron     866.0000015 magnetization      80.1150879
 augmentation part      278.0327167 magnetization      58.3364175

 Broyden mixing:
  rms(total) = 0.20501E+01    rms(broyden)= 0.20501E+01
  rms(prec ) = 0.22108E+01
  weight for this iteration     100.00

 Free energy of the ion-electron system (eV)
  ---------------------------------------------------
  alpha Z        PSCENC =      3130.79271962
  Ewald energy   TEWEN  =    -39468.46342455
  -Hartree energ DENC   =    -40998.75361011
  -exchange      EXHF   =         0.00000000
  -V(xc)+E(xc)   XCENC  =      4272.60116950
  PAW double counting   =     93970.90096839   -96407.50484719
  entropy T*S    EENTRO =        -0.03241145
  eigenvalues    EBANDS =    -10328.30785780
  atomic energy  EATOM  =     84411.27416750
  Solvation  Ediel_sol  =         0.00000000
  ---------------------------------------------------
  free energy    TOTEN  =     -1417.49312608 eV

  energy without entropy =    -1417.46071463  energy(sigma->0) =    -1417.47692035


--------------------------------------------------------------------------------------------------------




--------------------------------------- Iteration      1(   2)  ---------------------------------------


    POTLOK:  cpu time      0.3033: real time      0.3578
    SETDIJ:  cpu time      1.6077: real time      1.6150
     EDDAV:  cpu time     90.8824: real time     91.6905
       DOS:  cpu time      0.0019: real time      0.0019
    CHARGE:  cpu time      8.2881: real time      8.3564
    MIXING:  cpu time      0.0043: real time      0.3175
    --------------------------------------------
      LOOP:  cpu time    101.0877: real time    102.3390

 eigenvalue-minimisations  : 12960
 total energy-change (2. order) : 0.2198725E+03  (-0.1300622E+02)
 number of electron     866.0000016 magnetization      80.2163667
 augmentation part      284.8169512 magnetization      57.5661898

 Broyden mixing:
  rms(total) = 0.80594E+01    rms(broyden)= 0.80594E+01
  rms(prec ) = 0.88269E+01
  weight for this iteration     100.00

 eigenvalues of (default mixing * dielectric matrix)
  average eigenvalue GAMMA=   0.2131
  0.2131

 Free energy of the ion-electron system (eV)
  ---------------------------------------------------
  alpha Z        PSCENC =      3130.79271962
  Ewald energy   TEWEN  =    -39468.46342455
  -Hartree energ DENC   =    -40816.54906204
  -exchange      EXHF   =         0.00000000
  -V(xc)+E(xc)   XCENC  =      4352.66545613
  PAW double counting   =     94120.91605485   -96534.54480669
  entropy T*S    EENTRO =        -0.05158039
  eigenvalues    EBANDS =    -10393.66017201
  atomic energy  EATOM  =     84411.27416750
  Solvation  Ediel_sol  =         0.00000000
  ---------------------------------------------------
  free energy    TOTEN  =     -1197.62064757 eV

  energy without entropy =    -1197.56906717  energy(sigma->0) =    -1197.59485737


--------------------------------------------------------------------------------------------------------




--------------------------------------- Iteration      1(   3)  ---------------------------------------


    POTLOK:  cpu time      0.3480: real time      0.3613
    SETDIJ:  cpu time      1.6091: real time      1.6159
     EDDAV:  cpu time     81.2452: real time     81.9551
       DOS:  cpu time      0.0019: real time      0.0019
    CHARGE:  cpu time      8.3405: real time      8.4135
    MIXING:  cpu time      0.0035: real time      0.0174
    --------------------------------------------
      LOOP:  cpu time     91.5482: real time     92.3651

 eigenvalue-minimisations  : 10840
 total energy-change (2. order) : 0.1351837E+02  (-0.8277601E+01)
 number of electron     866.0000016 magnetization      80.0256448
 augmentation part      285.3147856 magnetization      59.1181381

 Broyden mixing:
  rms(total) = 0.20196E+01    rms(broyden)= 0.20195E+01
  rms(prec ) = 0.21469E+01
  weight for this iteration     100.00

 eigenvalues of (default mixing * dielectric matrix)
  average eigenvalue GAMMA=   0.2592
  0.3683  0.1501

 Free energy of the ion-electron system (eV)
  ---------------------------------------------------
  alpha Z        PSCENC =      3130.79271962
  Ewald energy   TEWEN  =    -39468.46342455
  -Hartree energ DENC   =    -40831.72234339
  -exchange      EXHF   =         0.00000000
  -V(xc)+E(xc)   XCENC  =      4358.47036668
  PAW double counting   =     94114.16025984   -96531.18228259
  entropy T*S    EENTRO =        -0.02203230
  eigenvalues    EBANDS =    -10367.40970467
  atomic energy  EATOM  =     84411.27416750
  Solvation  Ediel_sol  =         0.00000000
  ---------------------------------------------------
  free energy    TOTEN  =     -1184.10227385 eV

  energy without entropy =    -1184.08024156  energy(sigma->0) =    -1184.09125770


--------------------------------------------------------------------------------------------------------




--------------------------------------- Iteration      1(   4)  ---------------------------------------


    POTLOK:  cpu time      0.3315: real time      0.3564
    SETDIJ:  cpu time      1.6309: real time      1.6393
     EDDAV:  cpu time     87.5167: real time     88.2974
       DOS:  cpu time      0.0012: real time      0.0012
    CHARGE:  cpu time      8.2847: real time      8.3563
    MIXING:  cpu time      0.0036: real time      0.0543
    --------------------------------------------
      LOOP:  cpu time     97.7686: real time     98.7050

 eigenvalue-minimisations  : 12200
 total energy-change (2. order) : 0.5921680E-01  (-0.1022622E+01)
 number of electron     866.0000016 magnetization      79.9657762
 augmentation part      284.2067642 magnetization      58.9354977

 Broyden mixing:
  rms(total) = 0.20597E+01    rms(broyden)= 0.20597E+01
  rms(prec ) = 0.23153E+01
  weight for this iteration     100.00

 eigenvalues of (default mixing * dielectric matrix)
  average eigenvalue GAMMA=   0.2454
  0.2948  0.2948  0.1465

 Free energy of the ion-electron system (eV)
  ---------------------------------------------------
  alpha Z        PSCENC =      3130.79271962
  Ewald energy   TEWEN  =    -39468.46342455
  -Hartree energ DENC   =    -40877.35761968
  -exchange      EXHF   =         0.00000000
  -V(xc)+E(xc)   XCENC  =      4360.75803615
  PAW double counting   =     94056.44638264   -96481.15356405
  entropy T*S    EENTRO =        -0.03523676
  eigenvalues    EBANDS =    -10316.30451792
  atomic energy  EATOM  =     84411.27416750
  Solvation  Ediel_sol  =         0.00000000
  ---------------------------------------------------
  free energy    TOTEN  =     -1184.04305705 eV

  energy without entropy =    -1184.00782029  energy(sigma->0) =    -1184.02543867


--------------------------------------------------------------------------------------------------------




--------------------------------------- Iteration      1(   5)  ---------------------------------------


    POTLOK:  cpu time      0.3154: real time      0.3181
    SETDIJ:  cpu time      1.6195: real time      1.6269
     EDDAV:  cpu time     83.2475: real time     83.9758
       DOS:  cpu time      0.0019: real time      0.0019
    CHARGE:  cpu time      8.4545: real time      8.5277
    MIXING:  cpu time      0.0034: real time      0.0034
    --------------------------------------------
      LOOP:  cpu time     93.6421: real time     94.4539

 eigenvalue-minimisations  : 11080
 total energy-change (2. order) : 0.3334090E+00  (-0.1052297E+01)
 number of electron     866.0000016 magnetization      79.9657185
 augmentation part      284.0677382 magnetization      58.7028286

 Broyden mixing:
  rms(total) = 0.13167E+01    rms(broyden)= 0.13167E+01
  rms(prec ) = 0.14814E+01
  weight for this iteration     100.00

 eigenvalues of (default mixing * dielectric matrix)
  average eigenvalue GAMMA=   0.3069
  0.4676  0.4676  0.1338  0.1585

 Free energy of the ion-electron system (eV)
  ---------------------------------------------------
  alpha Z        PSCENC =      3130.79271962
  Ewald energy   TEWEN  =    -39468.46342455
  -Hartree energ DENC   =    -40893.10421324
  -exchange      EXHF   =         0.00000000
  -V(xc)+E(xc)   XCENC  =      4362.17670866
  PAW double counting   =     94043.99173656   -96470.14288245
  entropy T*S    EENTRO =        -0.03162728
  eigenvalues    EBANDS =    -10300.20283292
  atomic energy  EATOM  =     84411.27416750
  Solvation  Ediel_sol  =         0.00000000
  ---------------------------------------------------
  free energy    TOTEN  =     -1183.70964810 eV

  energy without entropy =    -1183.67802082  energy(sigma->0) =    -1183.69383446


--------------------------------------------------------------------------------------------------------




--------------------------------------- Iteration      1(   6)  ---------------------------------------


    POTLOK:  cpu time      0.4569: real time      0.4818
    SETDIJ:  cpu time      1.6181: real time      1.6262
     EDDAV:  cpu time     87.1739: real time     87.9610
       DOS:  cpu time      0.0019: real time      0.0019
    CHARGE:  cpu time      8.2779: real time      8.3493
    MIXING:  cpu time      0.0035: real time      0.0036
    --------------------------------------------
      LOOP:  cpu time     97.5323: real time     98.4238

 eigenvalue-minimisations  : 12080
 total energy-change (2. order) : 0.1628028E+00  (-0.2737238E+00)
 number of electron     866.0000016 magnetization      79.8627407
 augmentation part      284.1767179 magnetization      59.2080157

 Broyden mixing:
  rms(total) = 0.10900E+01    rms(broyden)= 0.10900E+01
  rms(prec ) = 0.12200E+01
  weight for this iteration     100.00

 eigenvalues of (default mixing * dielectric matrix)
  average eigenvalue GAMMA=   0.3286
  0.5864  0.5864  0.2080  0.1312  0.1312

 Free energy of the ion-electron system (eV)
  ---------------------------------------------------
  alpha Z        PSCENC =      3130.79271962
  Ewald energy   TEWEN  =    -39468.46342455
  -Hartree energ DENC   =    -40911.50363078
  -exchange      EXHF   =         0.00000000
  -V(xc)+E(xc)   XCENC  =      4363.67218642
  PAW double counting   =     94032.33387737   -96459.35775551
  entropy T*S    EENTRO =        -0.03076289
  eigenvalues    EBANDS =    -10282.26422245
  atomic energy  EATOM  =     84411.27416750
  Solvation  Ediel_sol  =         0.00000000
  ---------------------------------------------------
[...]
      8.45087      8.16076      1.39188        -0.036903      0.076445      0.103961
      2.83098     13.04813      1.53472         0.105768     -0.080441     -0.151675
      8.43914      3.22644      1.45552         0.210055     -0.181331     -0.049909
      1.39733     10.60495      1.48747         0.025528      0.008355     -0.043872
      4.25276      0.80074      1.41756        -0.212032     -0.366929      0.000745
      7.02857     10.61708      1.41755        -0.093671     -0.053295      0.164835
      7.00594      5.69624      1.49485        -0.005763      0.388108      0.009331
      2.81157      3.23969      1.37985        -0.181702     -0.032817      0.064701
      1.42694      5.71941      1.47545         0.089293      0.170923     -0.181586
     -0.00381     11.43302      7.27376        -0.017484      0.050134     -0.013896
      2.81376     11.43946      7.22750         0.159645     -0.051432      0.086998
      7.03041      8.94061      7.32991        -0.136417     -0.026286     -0.138814
      2.81817      1.65014      7.30158         0.028704      0.002606      0.129550
      7.05781     13.89479      7.21574         0.012986      0.168783      0.006857
      5.63223     11.42118      7.31320        -0.086227     -0.010948     -0.041644
      5.64544      1.67934      7.28280        -0.041358     -0.282971      0.062715
     -0.00337      6.47125      7.22327         0.121994      0.267729     -0.000150
      1.43668      8.93636      7.31875         0.111175     -0.054027     -0.002182
      8.45850     14.64663      0.37894        -0.036876     -0.135125      0.616159
      4.22019      7.33402      0.41145        -0.120383      0.315992      0.765988
      7.04004      2.43207      0.47458         0.065465      0.309915      0.280780
      2.79874      9.79893      0.43166        -0.109745     -0.113403      0.575888
      5.62690      4.89430      0.46337         0.260124     -0.107928      0.327646
      1.42846     12.23215      0.50071         0.042750     -0.069773      0.355367
      2.80943     14.63353      0.49387         0.177958     -0.052303      0.392968
      7.03875      7.31398      0.44315         0.150257     -0.224428      0.334221
      1.37049      2.42653      0.45301        -0.066629      0.244593      0.399483
      5.63006      9.77145      0.42462         0.001713      0.177251      0.416032
      8.45691      4.90066      0.48625        -0.021932     -0.002679      0.351698
      4.23547     12.21641      0.50964        -0.162925      0.100650      0.204560
      5.65598     14.64727      0.41668         0.098700      0.072377      0.491271
      1.39733      7.31746      0.43808        -0.138477     -0.162030      0.401280
      4.23359      2.44897      0.40727         0.061537      0.111288      0.472658
      8.47331      9.79816      0.44382         0.020318     -0.034753      0.382888
      2.81284      4.90450      0.43397        -0.098628     -0.045921      0.430509
      7.05603     12.25450      0.43541         0.015235      0.076290      0.472693
      8.44716      1.60364      2.45974        -0.097565      0.044105     -0.449251
      4.22755      8.95973      2.50905        -0.211082     -0.201737     -0.715957
      7.05276      4.06695      2.46611        -0.098218     -0.047201     -0.494461
      2.83179     11.36776      2.49053         0.017432      0.024762     -0.393053
      5.63321      6.54099      2.47143         0.090791     -0.083248     -0.597203
      1.38419     13.86251      2.47723        -0.105758      0.001691     -0.488707
      2.81512      1.63337      2.39976         0.142553      0.149774     -0.308302
      7.05321      8.96621      2.41364         0.203773      0.106694     -0.394738
      1.42808      4.06011      2.44094         0.050305     -0.058518     -0.353925
      5.62162     11.38637      2.44442         0.285964     -0.247076     -0.337243
      8.46652      6.55397      2.45266        -0.018512     -0.036204     -0.362846
      4.25228     13.88366      2.46572        -0.048934      0.167506     -0.432583
      5.66201      1.59258      2.43164        -0.209085      0.135498     -0.221717
      1.38289      8.95106      2.43478        -0.125329      0.082359     -0.340977
      4.19470      4.06676      2.43562        -0.017932     -0.375496     -0.259848
      8.44223     11.41930      2.42597         0.031923     -0.022327     -0.379306
      2.80983      6.55214      2.45439        -0.188060     -0.041446     -0.352175
      7.05671     13.86748      2.52186         0.122253      0.020224     -0.628015
      8.47062      0.04206      6.23724        -0.066521     -0.192201      0.450213
      4.23682      7.33713      6.27023        -0.025335     -0.430786      0.672542
      7.06634      2.45180      6.26800        -0.322871      0.213124      0.420107
      2.82630      9.76340      6.29144        -0.110415      0.049737      0.375179
      5.64824      4.90573      6.26471         0.185697     -0.062777      0.682680
      1.39609     12.23718      6.28008        -0.028227     -0.045593      0.397939
      2.81491      0.04034      6.25763        -0.121749      0.357909      0.395903
      7.05489      7.35277      6.27905         0.087901      0.100527      0.421089
      1.43947      2.46887      6.25336         0.308355      0.096508      0.422426
      5.63219      9.77749      6.31966         0.155687      0.006127      0.430161
      0.00593      4.86979      6.25777        -0.201321      0.061371      0.622026
      4.24080     12.20692      6.25290        -0.077065     -0.133780      0.408938
      5.65085      0.04778      6.24249         0.227415      0.133541      0.345593
      1.41410      7.35581      6.27463        -0.167462      0.090224      0.350431
      4.22972      2.48407      6.27439        -0.023352     -0.010663      0.342932
     -0.00457      9.76012      6.32066         0.005256     -0.003732      0.352263
      2.81053      4.90006      6.25520        -0.007264     -0.131641      0.358657
      7.04818     12.21919      6.28599         0.020536     -0.026543      0.381130
      1.42305      0.84126      8.28559         0.102456     -0.023036     -0.742507
      5.64688      8.11896      8.30888         0.276124      0.033678     -0.283313
      8.45744      3.27920      8.26539        -0.171043      0.539329     -0.469709
      4.20169     10.61948      8.28538        -0.041592      0.236658     -0.320526
      7.07415      5.71191      8.26066         0.202918     -0.343633     -0.273618
      2.81279     13.05104      8.25656        -0.139590     -0.250126     -0.313932
      4.24075      0.82603      8.25821        -0.018624      0.252153     -0.494948
     -0.00277      8.11361      8.29209        -0.006901     -0.065873     -0.354146
      2.83684      3.29533      8.28969         0.048668      0.022384     -0.468207
      7.05617     10.60976      8.27960         0.019684      0.000278     -0.363624
      1.39860      5.71521      8.26164        -0.200634     -0.224495     -0.309570
      5.65313     13.08140      8.25115         0.113625     -0.043834     -0.337878
      7.06083      0.81009      8.25638        -0.091064     -0.083960     -0.413796
      2.80999      8.11601      8.31266        -0.069994      0.023028     -0.569998
      5.62007      3.29551      8.27910         0.170887     -0.038468     -0.488817
      1.42573     10.62239      8.28170         0.006656      0.022154     -0.373315
      4.23181      5.70403      8.35088         0.167671      0.038696     -0.700004
      8.44781     13.07491      8.24719        -0.045904     -0.014331     -0.353156
 -----------------------------------------------------------------------------------
    total drift:                                0.018379      0.066139      0.016200


--------------------------------------------------------------------------------------------------------



  FREE ENERGIE OF THE ION-ELECTRON SYSTEM (eV)
  ---------------------------------------------------
  free  energy   TOTEN  =     -1183.54588917 eV

  energy  without entropy=    -1183.54446098  energy(sigma->0) =    -1183.54517508
 


--------------------------------------------------------------------------------------------------------


    POTLOK:  cpu time      1.9030: real time      1.9125


--------------------------------------------------------------------------------------------------------


 writing wavefunctions
     LOOP+:  cpu time   4227.6876: real time   4274.2210
    4ORBIT:  cpu time      0.0000: real time      0.0000



 total charge

# of ion       s       p       d       tot
------------------------------------------
    1        0.028   5.976   0.000   6.004
    2        0.026   5.974   0.000   6.000
    3        0.027   5.975   0.000   6.001
    4        0.027   5.975   0.000   6.002
    5        0.026   5.974   0.000   6.000
    6        0.027   5.976   0.000   6.003
    7        0.027   5.976   0.000   6.003
    8        0.027   5.975   0.000   6.001
    9        0.436   0.716   6.159   7.312
   10        0.434   0.715   6.149   7.298
   11        0.450   0.748   6.155   7.352
   12        0.442   0.726   6.133   7.300
   13        0.435   0.709   6.133   7.277
   14        0.439   0.727   6.101   7.267
   15        0.446   0.733   6.170   7.349
   16        0.439   0.722   6.149   7.309
   17        0.436   0.716   6.156   7.308
   18        0.446   0.740   6.124   7.310
   19        0.431   0.710   6.173   7.314
   20        0.439   0.721   6.146   7.305
   21        0.435   0.711   6.120   7.266
   22        0.426   0.698   6.148   7.272
   23        0.436   0.714   6.156   7.306
   24        0.447   0.743   6.073   7.263
   25        0.450   0.745   6.170   7.364
   26        0.433   0.713   6.160   7.306
   27        0.386   6.468   4.871  11.725
   28        0.382   6.456   4.856  11.694
   29        0.379   6.451   4.853  11.684
   30        0.382   6.460   4.860  11.702
   31        0.378   6.449   4.848  11.675
   32        0.379   6.452   4.855  11.687
   33        0.381   6.454   4.861  11.697
   34        0.387   6.467   4.873  11.727
   35        0.380   6.455   4.855  11.690
   36        0.378   6.454   4.847  11.679
   37        0.388   6.469   4.877  11.734
   38        0.380   6.454   4.857  11.692
   39        0.384   6.459   4.871  11.714
   40        0.385   6.465   4.876  11.726
   41        0.381   6.459   4.856  11.697
   42        0.381   6.455   4.856  11.691
   43        0.388   6.465   4.878  11.731
   44        0.380   6.454   4.858  11.692
   45        1.578   3.430   0.000   5.008
   46        1.585   3.403   0.000   4.987
   47        1.582   3.421   0.000   5.003
   48        1.575   3.444   0.000   5.019
   49        1.576   3.443   0.000   5.019
   50        1.575   3.452   0.000   5.027
   51        1.581   3.434   0.000   5.015
   52        1.575   3.451   0.000   5.025
   53        1.580   3.435   0.000   5.015
   54        1.583   3.418   0.000   5.001
   55        1.574   3.465   0.000   5.039
   56        1.574   3.443   0.000   5.017
   57        1.576   3.442   0.000   5.018
   58        1.575   3.450   0.000   5.025
   59        1.575   3.454   0.000   5.029
   60        1.580   3.445   0.000   5.026
   61        1.574   3.453   0.000   5.028
   62        1.576   3.442   0.000   5.018
   63        1.575   3.444   0.000   5.020
   64        1.579   3.421   0.000   5.000
   65        1.581   3.434   0.000   5.015
   66        1.574   3.451   0.000   5.025
   67        1.582   3.423   0.000   5.005
   68        1.582   3.419   0.000   5.001
   69        1.576   3.445   0.000   5.021
   70        1.575   3.451   0.000   5.026
   71        1.574   3.462   0.000   5.036
   72        1.575   3.444   0.000   5.018
   73        1.575   3.459   0.000   5.034
   74        1.580   3.435   0.000   5.016
   75        1.575   3.444   0.000   5.019
   76        1.575   3.454   0.000   5.029
   77        1.575   3.441   0.000   5.016
   78        1.581   3.433   0.000   5.014
   79        1.582   3.423   0.000   5.005
   80        1.579   3.424   0.000   5.002
   81        1.575   3.443   0.000   5.019
   82        1.585   3.403   0.000   4.988
   83        1.575   3.448   0.000   5.023
   84        1.574   3.455   0.000   5.029
   85        1.584   3.410   0.000   4.994
   86        1.581   3.435   0.000   5.016
   87        1.583   3.419   0.000   5.002
   88        1.575   3.451   0.000   5.025
   89        1.576   3.445   0.000   5.021
   90        1.574   3.455   0.000   5.029
   91        1.582   3.421   0.000   5.003
   92        1.574   3.457   0.000   5.032
   93        1.574   3.453   0.000   5.027
   94        1.575   3.450   0.000   5.025
   95        1.574   3.456   0.000   5.030
   96        1.575   3.463   0.000   5.038
   97        1.577   3.430   0.000   5.007
   98        1.580   3.445   0.000   5.025
   99        1.582   3.421   0.000   5.003
  100        1.582   3.420   0.000   5.003
  101        1.584   3.405   0.000   4.989
  102        1.574   3.452   0.000   5.026
  103        1.576   3.446   0.000   5.022
  104        1.576   3.436   0.000   5.013
  105        1.580   3.438   0.000   5.018
  106        1.575   3.459   0.000   5.033
  107        1.575   3.441   0.000   5.016
  108        1.580   3.445   0.000   5.025
  109        1.575   3.446   0.000   5.021
  110        1.574   3.456   0.000   5.030
  111        1.575   3.451   0.000   5.025
  112        1.581   3.427   0.000   5.008
  113        1.576   3.443   0.000   5.018
  114        1.575   3.460   0.000   5.035
  115        1.579   3.423   0.000   5.002
  116        1.575   3.453   0.000   5.028
--------------------------------------------------
tot        128.570 424.749 198.082 751.400



 magnetization (x)

# of ion       s       p       d       tot
------------------------------------------
    1        0.001   0.000   0.000   0.001
    2        0.001   0.000   0.000   0.002
    3        0.001   0.000   0.000   0.002
    4        0.001   0.000   0.000   0.001
    5        0.001   0.000   0.000   0.001
    6        0.001  -0.000   0.000   0.001
    7        0.001   0.000   0.000   0.001
    8        0.001   0.000   0.000   0.001
    9        0.021   0.024   1.436   1.481
   10        0.023   0.026   1.439   1.487
   11        0.023   0.027   1.573   1.623
   12        0.021   0.026   1.587   1.634
   13        0.020   0.024   1.525   1.570
   14        0.027   0.026   1.682   1.735
   15        0.019   0.026   1.478   1.523
   16        0.021   0.023   1.462   1.507
   17        0.024   0.026   1.443   1.493
   18        0.020   0.021   1.634   1.676
   19        0.019   0.019   1.336   1.374
   20        0.017   0.019   1.514   1.551
   21        0.024   0.026   1.564   1.615
   22        0.026   0.025   1.384   1.435
   23        0.019   0.024   1.430   1.473
   24       -0.008  -0.011  -1.946  -1.965
   25        0.018   0.022   1.512   1.552
   26        0.025   0.026   1.416   1.467
   27        0.023   0.034   2.828   2.885
   28        0.021   0.034   2.823   2.879
   29        0.021   0.033   2.821   2.876
   30        0.022   0.034   2.820   2.876
   31        0.020   0.033   2.821   2.873
   32        0.021   0.033   2.808   2.861
   33        0.020   0.033   2.809   2.862
   34        0.021   0.034   2.817   2.873
   35        0.022   0.033   2.825   2.881
   36        0.024   0.035   2.851   2.910
   37        0.021   0.034   2.811   2.866
   38        0.022   0.034   2.822   2.877
   39        0.019   0.033   2.793   2.845
   40        0.022   0.035   2.803   2.859
   41        0.023   0.035   2.840   2.898
   42        0.018   0.032   2.823   2.873
   43        0.018   0.032   2.812   2.862
   44        0.022   0.033   2.820   2.875
   45        0.001   0.051   0.000   0.052
   46        0.002   0.044   0.000   0.046
   47        0.001   0.005   0.000   0.006
   48        0.002   0.022   0.000   0.024
   49        0.001   0.006   0.000   0.007
   50        0.001  -0.009   0.000  -0.007
   51        0.002  -0.005   0.000  -0.003
   52        0.002  -0.002   0.000  -0.000
   53        0.002   0.012   0.000   0.014
   54        0.003   0.057   0.000   0.060
   55        0.002   0.001   0.000   0.003
   56        0.000  -0.011   0.000  -0.010
   57        0.001   0.016   0.000   0.017
   58        0.002  -0.004   0.000  -0.002
   59        0.002   0.010   0.000   0.012
   60        0.003   0.006   0.000   0.009
   61        0.002   0.005   0.000   0.007
   62        0.002   0.022   0.000   0.023
   63        0.001   0.017   0.000   0.018
   64        0.002   0.048   0.000   0.049
   65        0.003   0.013   0.000   0.016
   66        0.002   0.006   0.000   0.008
   67        0.002   0.016   0.000   0.018
   68        0.002   0.024   0.000   0.026
   69        0.001  -0.008   0.000  -0.007
   70        0.001  -0.008   0.000  -0.006
   71        0.002   0.004   0.000   0.006
   72        0.001   0.004   0.000   0.006
   73        0.002  -0.006   0.000  -0.003
   74        0.002   0.000   0.000   0.002
   75        0.001   0.000   0.000   0.001
   76        0.002   0.001   0.000   0.002
   77        0.001   0.025   0.000   0.026
   78        0.002   0.004   0.000   0.006
   79        0.002   0.027   0.000   0.029
   80        0.001   0.045   0.000   0.046
   81        0.001   0.005   0.000   0.006
   82        0.002   0.043   0.000   0.044
   83        0.000  -0.005   0.000  -0.005
   84        0.002   0.001   0.000   0.002
   85       -0.000   0.018   0.000   0.018
   86        0.003   0.013   0.000   0.016
   87        0.002   0.030   0.000   0.032
   88        0.002  -0.001   0.000   0.001
   89        0.002   0.023   0.000   0.025
   90        0.002  -0.002   0.000  -0.000
   91        0.001   0.012   0.000   0.013
   92        0.002   0.012   0.000   0.014
   93        0.001  -0.003   0.000  -0.001
   94        0.002  -0.005   0.000  -0.003
   95        0.002   0.003   0.000   0.004
   96        0.002   0.001   0.000   0.003
   97        0.001   0.044   0.000   0.045
   98        0.003   0.003   0.000   0.006
   99        0.002   0.015   0.000   0.018
  100        0.002   0.027   0.000   0.029
  101       -0.001   0.039   0.000   0.038
  102        0.002   0.005   0.000   0.006
  103       -0.000  -0.011   0.000  -0.011
  104        0.002   0.022   0.000   0.023
  105        0.002   0.002   0.000   0.004
  106        0.002  -0.005   0.000  -0.002
  107        0.002   0.003   0.000   0.005
  108        0.003   0.012   0.000   0.015
  109        0.001   0.002   0.000   0.003
  110        0.001   0.001   0.000   0.003
  111        0.002  -0.007   0.000  -0.006
  112        0.002   0.014   0.000   0.016
  113        0.000   0.008   0.000   0.008
  114        0.003   0.006   0.000   0.009
  115        0.002   0.041   0.000   0.042
  116        0.002  -0.005   0.000  -0.004
--------------------------------------------------
tot          0.869   1.805  74.218  76.892
 

 total amount of memory used by VASP MPI-rank0   238833. kBytes
=======================================================================

   base      :      30000. kBytes
   nonlr-proj:      44977. kBytes
   fftplans  :      27834. kBytes
   grid      :      76849. kBytes
   one-center:       1804. kBytes
   wavefun   :      57369. kBytes
 
  
  
 General timing and accounting informations for this job:
 ========================================================
  
                  Total CPU time used (sec):     4270.629
                            User time (sec):     4182.190
                          System time (sec):       88.440
                         Elapsed time (sec):     4328.551
  
                   Maximum memory used (kb):      456900.
                   Average memory used (kb):          N/A
  
                          Minor page faults:       503549
                          Major page faults:         2398
                 Voluntary context switches:         5918
