 vasp.6.3.2 27Jun22 (build Aug 21 2024 08:45:13) complex                        
  
 executed on             LinuxIFC date 2025.07.15  01:40:24
 running on   80 total cores
 distrk:  each k-point on   80 cores,    1 groups
 distr:  one band on NCORE=   2 cores,   40 groups


--------------------------------------------------------------------------------------------------------


 INCAR:
   SYSTEM = NFMO_p2
   NWRITE = 2
   PREC = ACCURATE
   ISTART = 1
   ICHARG = 1
   LASPH = .TRUE.
   ISPIN = 2
   MAGMOM = 16*0.1 12*4.2 12*3.8 48*0.1
   LORBIT = 11
   ENCUT = 680
   SIGMA = 0.05
   ISMEAR = 0
   NELM = 500
   NELMIN = 2
   LREAL = AUTO
   NSW = 0
   IBRION = -1
   ISIF = 3
   EDIFF = 1.0E-05
   EDIFFG = -0.01
   ADDGRID = .TRUE.
   NCORE = 2
   METAGGA = R2SCAN
   LMAXMIX = 6

 POTCAR:    PAW_PBE Na_pv 19Sep2006               
 POTCAR:    PAW_PBE Fe 06Sep2000                  
 POTCAR:    PAW_PBE Mn_pv 02Aug2007               
 POTCAR:    PAW_PBE O 08Apr2002                   
 -----------------------------------------------------------------------------
|                                                                             |
|           W    W    AA    RRRRR   N    N  II  N    N   GGGG   !!!           |
|           W    W   A  A   R    R  NN   N  II  NN   N  G    G  !!!           |
|           W    W  A    A  R    R  N N  N  II  N N  N  G       !!!           |
|           W WW W  AAAAAA  RRRRR   N  N N  II  N  N N  G  GGG   !            |
|           WW  WW  A    A  R   R   N   NN  II  N   NN  G    G                |
|           W    W  A    A  R    R  N    N  II  N    N   GGGG   !!!           |
|                                                                             |
|     For optimal performance we recommend to set                             |
|       NCORE = 2 up to number-of-cores-per-socket                            |
|     NCORE specifies how many cores store one orbital (NPAR=cpu/NCORE).      |
|     This setting can greatly improve the performance of VASP for DFT.       |
|     The default, NCORE=1 might be grossly inefficient on modern             |
|     multi-core architectures or massively parallel machines. Do your        |
|     own testing! More info at https://www.vasp.at/wiki/index.php/NCORE      |
|     Unfortunately you need to use the default for GW and RPA                |
|     calculations (for HF NCORE is supported but not extensively tested      |
|     yet).                                                                   |
|                                                                             |
 -----------------------------------------------------------------------------

 POTCAR:    PAW_PBE Na_pv 19Sep2006               
   VRHFIN =Na: p6s1                                                                                 
   LEXCH  = PE                                                                                      
   EATOM  =   766.0439 eV,   56.3026 Ry                                                             
                                                                                                    
   TITEL  = PAW_PBE Na_pv 19Sep2006                                                                 
   LULTRA =        F    use ultrasoft PP ?                                                          
   IUNSCR =        1    unscreen: 0-lin 1-nonlin 2-no                                               
   RPACOR =    1.800    partial core radius                                                         
   POMASS =   22.990; ZVAL   =    7.000    mass and valenz                                          
   RCORE  =    2.200    outmost cutoff radius                                                       
   RWIGS  =    2.200; RWIGS  =    1.164    wigner-seitz radius (au A)                               
   ENMAX  =  259.561; ENMIN  =  194.671 eV                                                          
   ICORE  =        2    local potential                                                             
   LCOR   =        T    correct aug charges                                                         
   LPAW   =        T    paw PP                                                                      
   EAUG   =  368.056                                                                                
   DEXC   =    0.000                                                                                
   RMAX   =    2.245    core radius for proj-oper                                                   
   RAUG   =    1.300    factor for augmentation sphere                                              
   RDEP   =    2.259    radius for radial grids                                                     
   RDEPT  =    1.738    core radius for aug-charge                                                  
                                                                                                    
   Atomic configuration                                                                             
    5 entries                                                                                       
     n  l   j            E        occ.                                                              
     1  0  0.50     -1033.6933   2.0000                                                             
     2  0  0.50       -56.7526   2.0000                                                             
     2  1  1.50       -28.6721   6.0000                                                             
     3  0  0.50        -2.7440   1.0000                                                             
     3  2  1.50        -1.3606   0.0000                                                             
   Description                                                                                      
     l       E           TYP  RCUT    TYP  RCUT                                                     
     1    -28.6720912     23  2.000                                                                 
     1      6.8029130     23  2.000                                                                 
     0     -2.7439560     23  2.200                                                                 
     0     34.0145650     23  2.200                                                                 
     2     -1.3605826     23  2.200                                                                 
  local pseudopotential read in
  partial core-charges read in
  partial kinetic energy density read in
  atomic valenz-charges read in
  non local Contribution for L=           1  read in
    real space projection operators read in
  non local Contribution for L=           1  read in
    real space projection operators read in
  non local Contribution for L=           0  read in
    real space projection operators read in
  non local Contribution for L=           0  read in
    real space projection operators read in
    PAW grid and wavefunctions read in
 
   number of l-projection  operators is LMAX  =           4
   number of lm-projection operators is LMMAX =           8
 
 POTCAR:    PAW_PBE Fe 06Sep2000                  
   VRHFIN =Fe:  d7 s1                                                                               
   LEXCH  = PE                                                                                      
   EATOM  =   594.3153 eV,   43.6809 Ry                                                             
                                                                                                    
   TITEL  = PAW_PBE Fe 06Sep2000                                                                    
   LULTRA =        F    use ultrasoft PP ?                                                          
   IUNSCR =        1    unscreen: 0-lin 1-nonlin 2-no                                               
   RPACOR =    2.000    partial core radius                                                         
   POMASS =   55.847; ZVAL   =    8.000    mass and valenz                                          
   RCORE  =    2.300    outmost cutoff radius                                                       
   RWIGS  =    2.460; RWIGS  =    1.302    wigner-seitz radius (au A)                               
   ENMAX  =  267.882; ENMIN  =  200.911 eV                                                          
   RCLOC  =    1.701    cutoff for local pot                                                        
   LCOR   =        T    correct aug charges                                                         
   LPAW   =        T    paw PP                                                                      
   EAUG   =  511.368                                                                                
   DEXC   =    0.000                                                                                
   RMAX   =    2.356    core radius for proj-oper                                                   
   RAUG   =    1.300    factor for augmentation sphere                                              
   RDEP   =    2.442    radius for radial grids                                                     
   RDEPT  =    1.890    core radius for aug-charge                                                  
                                                                                                    
   Atomic configuration                                                                             
    9 entries                                                                                       
     n  l   j            E        occ.                                                              
     1  0  0.50     -6993.8440   2.0000                                                             
     2  0  0.50      -814.6047   2.0000                                                             
     2  1  1.50      -693.3689   6.0000                                                             
     3  0  0.50       -89.4732   2.0000                                                             
     3  1  1.50       -55.6373   6.0000                                                             
     3  2  2.50        -3.8151   7.0000                                                             
     4  0  0.50        -4.2551   1.0000                                                             
     4  1  1.50        -3.4015   0.0000                                                             
     4  3  2.50        -1.3606   0.0000                                                             
   Description                                                                                      
     l       E           TYP  RCUT    TYP  RCUT                                                     
     2     -3.8151135     23  2.300                                                                 
     2     -5.1756961     23  2.300                                                                 
     0     -4.2550963     23  2.300                                                                 
     0      7.2035603     23  2.300                                                                 
     1     -2.7211652     23  2.300                                                                 
     1     18.4316424     23  2.300                                                                 
  local pseudopotential read in
  partial core-charges read in
  partial kinetic energy density read in
  atomic valenz-charges read in
  non local Contribution for L=           2  read in
    real space projection operators read in
  non local Contribution for L=           2  read in
    real space projection operators read in
  non local Contribution for L=           0  read in
    real space projection operators read in
  non local Contribution for L=           0  read in
    real space projection operators read in
  non local Contribution for L=           1  read in
    real space projection operators read in
  non local Contribution for L=           1  read in
    real space projection operators read in
    PAW grid and wavefunctions read in
 
   number of l-projection  operators is LMAX  =           6
   number of lm-projection operators is LMMAX =          18
 
 POTCAR:    PAW_PBE Mn_pv 02Aug2007               
   VRHFIN =Mn: 3p4s3d                                                                               
   LEXCH  = PE                                                                                      
   EATOM  =  2025.2664 eV,  148.8529 Ry                                                             
                                                                                                    
   TITEL  = PAW_PBE Mn_pv 02Aug2007                                                                 
   LULTRA =        F    use ultrasoft PP ?                                                          
   IUNSCR =        1    unscreen: 0-lin 1-nonlin 2-no                                               
   RPACOR =    2.080    partial core radius                                                         
   POMASS =   54.938; ZVAL   =   13.000    mass and valenz                                          
   RCORE  =    2.300    outmost cutoff radius                                                       
   RWIGS  =    2.500; RWIGS  =    1.323    wigner-seitz radius (au A)                               
   ENMAX  =  269.864; ENMIN  =  202.398 eV                                                          
   ICORE  =        3    local potential                                                             
   LCOR   =        T    correct aug charges                                                         
   LPAW   =        T    paw PP                                                                      
   EAUG   =  569.085                                                                                
   DEXC   =    0.000                                                                                
   RMAX   =    2.343    core radius for proj-oper                                                   
   RAUG   =    1.300    factor for augmentation sphere                                              
   RDEP   =    2.338    radius for radial grids                                                     
   RDEPT  =    1.798    core radius for aug-charge                                                  
                                                                                                    
   Atomic configuration                                                                             
    8 entries                                                                                       
     n  l   j            E        occ.                                                              
     1  0  0.50     -6424.8287   2.0000                                                             
     2  0  0.50      -739.1154   2.0000                                                             
     2  1  1.50      -625.3949   6.0000                                                             
     3  0  0.50       -81.6100   2.0000                                                             
     3  1  1.50       -50.4667   6.0000                                                             
     3  2  2.50        -3.3745   6.0000                                                             
     4  0  0.50        -4.1331   1.0000                                                             
     4  3  2.50        -1.3606   0.0000                                                             
   Description                                                                                      
     l       E           TYP  RCUT    TYP  RCUT                                                     
     1    -50.4666628     23  2.000                                                                 
     1     -1.3605826     23  2.000                                                                 
     2     -3.3744729     23  2.300                                                                 
     2     -4.7350555     23  2.300                                                                 
     0     -4.1331431     23  2.300                                                                 
     0      7.6656591     23  2.300                                                                 
     3      9.5240782     23  2.300                                                                 
  local pseudopotential read in
  partial core-charges read in
  partial kinetic energy density read in
  atomic valenz-charges read in
  non local Contribution for L=           1  read in
    real space projection operators read in
  non local Contribution for L=           1  read in
    real space projection operators read in
  non local Contribution for L=           2  read in
    real space projection operators read in
  non local Contribution for L=           2  read in
    real space projection operators read in
  non local Contribution for L=           0  read in
    real space projection operators read in
  non local Contribution for L=           0  read in
    real space projection operators read in
    PAW grid and wavefunctions read in
 
   number of l-projection  operators is LMAX  =           6
   number of lm-projection operators is LMMAX =          18
 
 POTCAR:    PAW_PBE O 08Apr2002                   
   VRHFIN =O: s2p4                                                                                  
   LEXCH  = PE                                                                                      
   EATOM  =   432.3788 eV,   31.7789 Ry                                                             
                                                                                                    
   TITEL  = PAW_PBE O 08Apr2002                                                                     
   LULTRA =        F    use ultrasoft PP ?                                                          
   IUNSCR =        1    unscreen: 0-lin 1-nonlin 2-no                                               
   RPACOR =    1.200    partial core radius                                                         
   POMASS =   16.000; ZVAL   =    6.000    mass and valenz                                          
   RCORE  =    1.520    outmost cutoff radius                                                       
   RWIGS  =    1.550; RWIGS  =    0.820    wigner-seitz radius (au A)                               
   ENMAX  =  400.000; ENMIN  =  300.000 eV                                                          
   ICORE  =        2    local potential                                                             
   LCOR   =        T    correct aug charges                                                         
   LPAW   =        T    paw PP                                                                      
   EAUG   =  605.392                                                                                
   DEXC   =    0.000                                                                                
   RMAX   =    1.553    core radius for proj-oper                                                   
   RAUG   =    1.300    factor for augmentation sphere                                              
   RDEP   =    1.550    radius for radial grids                                                     
   RDEPT  =    1.329    core radius for aug-charge                                                  
                                                                                                    
   Atomic configuration                                                                             
    4 entries                                                                                       
     n  l   j            E        occ.                                                              
     1  0  0.50      -514.6923   2.0000                                                             
     2  0  0.50       -23.9615   2.0000                                                             
     2  1  0.50        -9.0305   4.0000                                                             
     3  2  1.50        -9.5241   0.0000                                                             
   Description                                                                                      
     l       E           TYP  RCUT    TYP  RCUT                                                     
     0    -23.9615318     23  1.200                                                                 
     0     -9.5240782     23  1.200                                                                 
     1     -9.0304911     23  1.520                                                                 
     1      8.1634956     23  1.520                                                                 
     2     -9.5240782      7  1.500                                                                 
  local pseudopotential read in
  partial core-charges read in
  partial kinetic energy density read in
  kinetic energy density of atom read in
  atomic valenz-charges read in
  non local Contribution for L=           0  read in
    real space projection operators read in
  non local Contribution for L=           0  read in
    real space projection operators read in
  non local Contribution for L=           1  read in
    real space projection operators read in
  non local Contribution for L=           1  read in
    real space projection operators read in
    PAW grid and wavefunctions read in
 
   number of l-projection  operators is LMAX  =           4
   number of lm-projection operators is LMMAX =           8
 
 Optimization of the real space projectors (new method)

 maximal supplied QI-value         = 17.01
 optimisation between [QCUT,QGAM] = [ 13.27, 26.70] = [ 49.28,199.66] Ry 
 Optimized for a Real-space Cutoff    1.38 Angstroem

   l    n(q)    QCUT    max X(q) W(low)/X(q) W(high)/X(q)  e(spline) 
   1     11    13.266     4.940    0.11E-03    0.62E-04    0.24E-06
   1     11    13.266     6.253    0.16E-03    0.89E-04    0.35E-06
   0     11    13.266    37.438    0.39E-04    0.39E-05    0.18E-06
   0     11    13.266     9.606    0.17E-04    0.30E-05    0.12E-06
 Optimization of the real space projectors (new method)

 maximal supplied QI-value         = 16.25
 optimisation between [QCUT,QGAM] = [ 13.33, 26.65] = [ 49.73,198.92] Ry 
 Optimized for a Real-space Cutoff    1.38 Angstroem

   l    n(q)    QCUT    max X(q) W(low)/X(q) W(high)/X(q)  e(spline) 
   2     10    13.326    80.901    0.22E-03    0.32E-04    0.60E-06
   2     10    13.326    75.754    0.22E-03    0.33E-04    0.61E-06
   0     11    13.326    58.752    0.44E-04    0.45E-04    0.98E-06
   0     11    13.326    30.679    0.40E-04    0.41E-04    0.90E-06
   1     11    13.326    17.977    0.14E-03    0.11E-03    0.27E-06
   1     11    13.326    13.559    0.11E-03    0.90E-04    0.23E-06
 Optimization of the real space projectors (new method)

 maximal supplied QI-value         = 16.25
 optimisation between [QCUT,QGAM] = [ 13.33, 26.65] = [ 49.73,198.92] Ry 
 Optimized for a Real-space Cutoff    1.30 Angstroem

   l    n(q)    QCUT    max X(q) W(low)/X(q) W(high)/X(q)  e(spline) 
   1     10    13.326     3.658    0.55E-04    0.20E-03    0.16E-06
   1     10    13.326     5.612    0.11E-03    0.38E-03    0.30E-06
   2      9    13.326    55.373    0.12E-03    0.13E-03    0.32E-06
   2      9    13.326    50.863    0.12E-03    0.13E-03    0.33E-06
   0     10    13.326    79.536    0.53E-04    0.58E-04    0.27E-06
   0     10    13.326    38.668    0.48E-04    0.53E-04    0.25E-06
 Optimization of the real space projectors (new method)

 maximal supplied QI-value         = 24.76
 optimisation between [QCUT,QGAM] = [ 13.12, 26.49] = [ 48.21,196.48] Ry 
 Optimized for a Real-space Cutoff    1.12 Angstroem

   l    n(q)    QCUT    max X(q) W(low)/X(q) W(high)/X(q)  e(spline) 
   0      9    13.120    20.381    0.21E-03    0.13E-03    0.22E-06
   0      9    13.120    15.268    0.22E-03    0.14E-03    0.23E-06
   1      8    13.120     5.964    0.12E-03    0.26E-03    0.20E-06
   1      8    13.120     5.382    0.98E-04    0.22E-03    0.17E-06
  PAW_PBE Na_pv 19Sep2006               :
 energy of atom  1       EATOM= -766.0439
 kinetic energy error for atom=    0.0010 (will be added to EATOM!!)
  PAW_PBE Fe 06Sep2000                  :
 energy of atom  2       EATOM= -594.3153
 kinetic energy error for atom=    0.0007 (will be added to EATOM!!)
  PAW_PBE Mn_pv 02Aug2007               :
 energy of atom  3       EATOM=-2025.2664
 kinetic energy error for atom=    0.0024 (will be added to EATOM!!)
  PAW_PBE O 08Apr2002                   :
 energy of atom  4       EATOM= -432.3788
 kinetic energy error for atom=    0.0105 (will be added to EATOM!!)
 
 
 POSCAR: Fe05Mn05
  positions in direct lattice
  velocities in cartesian coordinates

 METAGGA = R2SCA    LMAXTAU =  6    LMIXTAU =  F

 exchange correlation table for  LEXCH =        8
   RHO(1)=    0.500       N(1)  =     2000
   RHO(2)=  100.500       N(2)  =     4000
 


--------------------------------------------------------------------------------------------------------


 ion  position               nearest neighbor table
   1  0.336  0.997  0.253-  25 2.77  29 2.83
   2  0.997  0.669  0.250-  49 2.33  47 2.34  17 2.79  38 2.81
   3  0.333  1.000  0.747-  25 2.77  29 2.84
   4  0.995  0.670  0.752-  86 2.34  83 2.35  17 2.79  38 2.82
   5  0.665  0.975  0.251-  54 2.33  52 2.34
   6  0.857  0.145  0.250-  41 2.31  53 2.31
   7  0.040  0.333  0.251-  47 2.32  59 2.34  55 2.35  43 2.36
   8  0.471  0.342  0.250-  45 2.31  57 2.31
   9  0.674  0.525  0.249-  50 2.30  62 2.30
  10  0.300  0.701  0.250-  49 2.34  61 2.35  51 2.36  63 2.37
  11  0.038  0.963  0.749-  88 2.34  65 2.35  77 2.35  76 2.36
  12  0.668  0.142  0.750-  78 2.31  66 2.32
  13  0.857  0.334  0.749-  82 2.30  70 2.31
  14  0.295  0.333  0.751-  83 2.33  71 2.34  79 2.35  67 2.37
  15  0.468  0.522  0.751-  85 2.31  73 2.31
  16  0.665  0.691  0.750-  86 2.34  75 2.36  87 2.37  74 2.38
  17  0.998  0.667  0.001-  49 1.92  83 1.93  47 1.93  86 1.96  88 1.96  52 1.97  19 2.70  22 2.74
                             2 2.79   4 2.79  30 2.83  34 2.85  21 2.88  18 2.91
  18  0.167  0.332  0.000-  82 1.94  45 1.94  47 1.94  83 1.94  43 2.00  79 2.00  22 2.72  19 2.79
                            32 2.87  33 2.87  29 2.88  17 2.91
  19  0.311  0.510  0.000-  83 1.98  49 1.99  85 2.04  45 2.05  81 2.20  48 2.21  17 2.70  18 2.79
                            21 2.80  33 2.98  31 2.98  20 3.01
  20  0.659  0.345  0.000-  84 2.00  48 2.01  81 2.06  46 2.07  44 2.12  80 2.17  31 2.79  33 2.92
                            32 2.95  22 2.99  19 3.01  30 3.05
  21  0.165  0.833  0.001-  85 1.92  49 1.92  41 1.94  88 1.95  77 1.97  51 1.98  19 2.80  30 2.81
                            29 2.87  17 2.88  31 2.88  32 2.89
  22  0.851  0.498  0.999-  47 1.99  82 2.00  86 2.02  50 2.10  46 2.11  84 2.22  18 2.72  17 2.74
                            32 2.89  34 2.91  20 2.99  31 3.04
  23  0.330  0.501  0.501-  73 1.93  57 1.94  71 1.94  61 1.95  69 1.98  60 1.99  38 2.80  27 2.85
                            26 2.86  24 2.89  39 2.89  35 2.89
  24  0.664  0.345  0.499-  72 2.01  60 2.03  58 2.06  69 2.09  68 2.14  56 2.14  28 2.80  39 2.82
                            23 2.89  40 2.94  35 2.97  36 3.02
  25  0.334  1.000  0.500-  65 1.93  55 1.93  63 1.93  67 1.93  54 1.96  75 1.96   1 2.77   3 2.77
                            40 2.84  39 2.87  35 2.87  37 2.87  26 2.91  27 2.91
  26  0.166  0.831  0.500-  73 1.92  53 1.94  63 1.95  65 1.95  61 1.96  76 1.97  36 2.84  39 2.85
                            23 2.86  38 2.86  40 2.91  25 2.91
  27  0.166  0.335  0.501-  70 1.92  57 1.92  71 1.96  67 1.96  59 1.96  55 1.96  38 2.82  23 2.85
                            35 2.86  40 2.87  28 2.87  25 2.91
  28  0.834  0.499  0.500-  70 1.93  59 1.95  62 1.96  74 1.97  58 1.98  72 1.98  24 2.80  27 2.87
                            38 2.87  37 2.88  40 2.90  39 2.92
  29  0.330  0.001  0.000-  77 1.91  43 1.91  51 1.92  79 1.93  87 1.95  42 1.95   1 2.83   3 2.84
                            32 2.85  21 2.87  18 2.88  31 2.90  33 2.90  34 2.92
  30  0.840  0.994  0.999-  88 1.91  41 1.91  52 1.94  78 1.95  80 1.96  44 2.00  21 2.81  17 2.83
                            34 2.88  32 2.88  33 2.94  20 3.05
  31  0.499  0.667  1.000-  85 1.88  48 1.92  84 1.92  50 1.93  51 1.96  87 1.98  20 2.79  21 2.88
                            34 2.89  29 2.90  19 2.98  22 3.04
  32  0.001  0.166  0.000-  82 1.89  46 1.91  80 1.94  41 1.94  43 1.95  77 1.96  29 2.85  18 2.87
                            30 2.88  21 2.89  22 2.89  20 2.95
  33  0.499  0.167  0.999-  45 1.87  81 1.89  44 1.94  79 1.94  78 1.96  42 1.98  18 2.87  29 2.90
                            34 2.91  20 2.92  30 2.94  19 2.98
  34  0.668  0.833  1.000-  50 1.89  86 1.90  52 1.93  78 1.93  87 1.96  42 1.96  17 2.85  30 2.88
                            31 2.89  33 2.91  22 2.91  29 2.92
  35  0.497  0.168  0.501-  57 1.92  69 1.92  67 1.93  54 1.97  66 1.97  56 1.98  27 2.86  25 2.87
                            23 2.89  37 2.93  36 2.94  24 2.97
  36  0.837  0.997  0.500-  53 1.91  76 1.93  68 1.94  66 1.95  64 1.96  56 1.96  26 2.84  40 2.90
                            37 2.91  38 2.92  35 2.94  24 3.02
  37  0.667  0.831  0.500-  62 1.90  75 1.93  74 1.94  54 1.94  66 1.95  64 1.96  39 2.87  25 2.87
                            28 2.88  36 2.91  35 2.93  38 2.93
  38  0.006  0.660  0.501-  71 1.91  59 1.91  61 1.91  74 1.95  76 1.96  64 1.98  23 2.80   2 2.81
                             4 2.82  27 2.82  26 2.86  28 2.87  36 2.92  37 2.93
  39  0.496  0.669  0.500-  73 1.92  63 1.93  60 1.94  62 1.95  75 1.96  72 1.98  24 2.82  26 2.85
                            37 2.87  25 2.87  23 2.89  28 2.92
  40  0.004  0.166  0.499-  70 1.92  55 1.92  65 1.94  58 1.94  53 1.96  68 1.98  25 2.84  27 2.87
                            28 2.90  36 2.90  26 2.91  24 2.94
  41  0.999  1.000  0.089-  30 1.91  21 1.94  32 1.94   6 2.31
  42  0.498  0.999  0.090-  29 1.95  34 1.96  33 1.98
  43  0.168  0.161  0.093-  29 1.91  32 1.95  18 2.00   7 2.36
  44  0.665  0.158  0.095-  33 1.94  30 2.00  20 2.12
  45  0.339  0.320  0.089-  33 1.87  18 1.94  19 2.05   8 2.31
  46  0.845  0.322  0.099-  32 1.91  20 2.07  22 2.11
  47  0.016  0.500  0.098-  17 1.93  18 1.94  22 1.99   7 2.32   2 2.34
  48  0.499  0.514  0.103-  31 1.92  20 2.01  19 2.21
  49  0.150  0.682  0.097-  17 1.92  21 1.92  19 1.99   2 2.33  10 2.34
  50  0.660  0.676  0.088-  34 1.89  31 1.93  22 2.10   9 2.30
  51  0.334  0.836  0.091-  29 1.92  31 1.96  21 1.98  10 2.36
  52  0.829  0.835  0.093-  34 1.93  30 1.94  17 1.97   5 2.34
  53  0.000  0.998  0.411-  36 1.91  26 1.94  40 1.96   6 2.31
  54  0.503  0.998  0.409-  37 1.94  25 1.96  35 1.97   5 2.33
  55  0.171  0.166  0.410-  40 1.92  25 1.93  27 1.96   7 2.35
  56  0.670  0.156  0.405-  36 1.96  35 1.98  24 2.14
  57  0.334  0.333  0.413-  35 1.92  27 1.92  23 1.94   8 2.31
  58  0.847  0.330  0.401-  40 1.94  28 1.98  24 2.06
  59  1.000  0.502  0.409-  38 1.91  28 1.95  27 1.96   7 2.34
  60  0.491  0.512  0.402-  39 1.94  23 1.99  24 2.03
  61  0.165  0.665  0.408-  38 1.91  23 1.95  26 1.96  10 2.35
  62  0.666  0.669  0.412-  37 1.90  39 1.95  28 1.96   9 2.30
  63  0.333  0.835  0.411-  25 1.93  39 1.93  26 1.95  10 2.37
  64  0.836  0.831  0.410-  36 1.96  37 1.96  38 1.98
  65  0.168  0.998  0.588-  25 1.93  40 1.94  26 1.95  11 2.35
  66  0.668  0.998  0.588-  36 1.95  37 1.95  35 1.97  12 2.32
  67  0.333  0.165  0.590-  35 1.93  25 1.93  27 1.96  14 2.37
  68  0.844  0.155  0.596-  36 1.94  40 1.98  24 2.14
  69  0.492  0.330  0.596-  35 1.92  23 1.98  24 2.09
  70  0.001  0.332  0.586-  40 1.92  27 1.92  28 1.93  13 2.31
  71  0.165  0.501  0.594-  38 1.91  23 1.94  27 1.96  14 2.34
  72  0.664  0.511  0.600-  39 1.98  28 1.98  24 2.01
  73  0.331  0.668  0.588-  26 1.92  39 1.92  23 1.93  15 2.31
  74  0.834  0.667  0.591-  37 1.94  38 1.95  28 1.97  16 2.38
  75  0.501  0.834  0.592-  37 1.93  25 1.96  39 1.96  16 2.36
  76  0.998  0.831  0.592-  36 1.93  38 1.96  26 1.97  11 2.36
  77  0.169  0.999  0.909-  29 1.91  32 1.96  21 1.97  11 2.35
  78  0.670  0.998  0.911-  34 1.93  30 1.95  33 1.96  12 2.31
  79  0.338  0.160  0.908-  29 1.93  33 1.94  18 2.00  14 2.35
  80  0.845  0.155  0.904-  32 1.94  30 1.96  20 2.17
  81  0.499  0.321  0.900-  33 1.89  20 2.06  19 2.20
  82  0.012  0.317  0.907-  32 1.89  18 1.94  22 2.00  13 2.30
  83  0.149  0.501  0.903-  17 1.93  18 1.94  19 1.98  14 2.33   4 2.35
  84  0.654  0.512  0.898-  31 1.92  20 2.00  22 2.22
  85  0.335  0.675  0.911-  31 1.88  21 1.92  19 2.04  15 2.31
  86  0.829  0.680  0.904-  34 1.90  17 1.96  22 2.02  16 2.34   4 2.34
  87  0.498  0.837  0.909-  29 1.95  34 1.96  31 1.98  16 2.37
  88  0.000  0.833  0.908-  30 1.91  21 1.95  17 1.96  11 2.34
 
  Warning from LATTYP: Got some problem with cell dimensions!
  Tried to take original basis but could not verify dimensions!
  LATTYP: Found a triclinic cell.
 ALAT       =    10.0024441096
 B/A-ratio  =     2.0652889307
 C/A-ratio  =     0.9958341208
 COS(alpha) =     0.0006068497
 COS(beta)  =     0.4972655131
 COS(gamma) =     0.7291875184
  
  Lattice vectors:
  
 A1 = (  -5.0134797497,   8.6551860268,   0.0407897895)
 A2 = (  -0.0933696525,  17.4066239802, -11.1243466742)
 A3 = (  -9.9606710172,  -0.0455291402,   0.0011366838)


Analysis of symmetry for initial positions (statically):
=====================================================================
 Subroutine PRICEL returns:
 Original cell was already a primitive cell.
 

 Routine SETGRP: Setting up the symmetry group for a 
 triclinic supercell.


 Subroutine GETGRP returns: Found  1 space group operations
 (whereof  1 operations were pure point group operations)
 out of a pool of  2 trial point group operations.


The static configuration has the point symmetry C_1 .


Analysis of symmetry for dynamics (positions and initial velocities):
=====================================================================
 Subroutine PRICEL returns:
 Original cell was already a primitive cell.
 

 Routine SETGRP: Setting up the symmetry group for a 
 triclinic supercell.


 Subroutine GETGRP returns: Found  1 space group operations
 (whereof  1 operations were pure point group operations)
 out of a pool of  2 trial point group operations.


The dynamic configuration has the point symmetry C_1 .


Analysis of structural, dynamic, and magnetic symmetry:
=====================================================================
 Subroutine PRICEL returns:
 Original cell was already a primitive cell.
 

 Routine SETGRP: Setting up the symmetry group for a 
 triclinic supercell.


 Subroutine GETGRP returns: Found  1 space group operations
 (whereof  1 operations were pure point group operations)
 out of a pool of  2 trial point group operations.


The overall configuration has the point symmetry C_1 .


 Subroutine INISYM returns: Found  1 space group operations
 (whereof  1 operations are pure point group operations),
 and found     1 'primitive' translations


----------------------------------------------------------------------------------------

                                     Primitive cell                                     

  volume of cell :     968.5595

  direct lattice vectors                    reciprocal lattice vectors
     9.960671017  0.045529140 -0.001136684     0.100656380 -0.057230519 -0.000502355
     4.947191268  8.700715167  0.039653106    -0.000526645  0.115230146  0.000522906
     0.027081170 -0.050722786 11.204789569     0.000012075 -0.000413599  0.089245647

  length of vectors
     9.960775136 10.008931922 11.204937103     0.115789859  0.115232536  0.089246606

  position of ions in fractional coordinates (direct lattice)
     0.336134663  0.997437637  0.252877221
     0.997452072  0.669114243  0.249661066
     0.333461201  0.999794095  0.747124879
     0.995131984  0.670234746  0.751787463
     0.665403653  0.974868149  0.250728767
     0.856543643  0.145404328  0.250318126
     0.039599419  0.332952188  0.250902076
     0.471084839  0.341954431  0.249528310
     0.673976608  0.525446671  0.248583143
     0.299747245  0.700971213  0.250052706
     0.037575191  0.963392495  0.749229960
     0.668014236  0.141887472  0.749512722
     0.856582646  0.333886473  0.748934899
     0.294879222  0.332587306  0.750986260
     0.467896436  0.522276208  0.750707221
     0.665495780  0.691166519  0.750203978
     0.998406375  0.667334171  0.001034886
     0.166570337  0.332273053  0.000064471
     0.310831232  0.510473969  0.000100293
     0.658933130  0.345150651  0.000108325
     0.165456227  0.833032012  0.001025274
     0.851452819  0.497748200  0.998850819
     0.330271247  0.501394652  0.500636754
     0.664338350  0.344910445  0.499296901
     0.333875120  0.999677143  0.499880433
     0.166172620  0.831048932  0.499752212
     0.166437203  0.335355252  0.500584948
     0.834058203  0.499356441  0.499924610
     0.330194577  0.000808558  0.000144571
     0.839741794  0.993549888  0.999427660
     0.499453515  0.666559547  0.999720245
     0.000655510  0.165662102  0.000326684
     0.499345290  0.167421852  0.998752303
     0.668115828  0.832504620  0.999578186
     0.497283190  0.168029873  0.500906331
     0.837402117  0.997260973  0.500237672
     0.666655155  0.830800241  0.500470967
     0.005540144  0.660399602  0.500635990
     0.496490706  0.669452018  0.500030792
     0.004489278  0.165781819  0.498598110
     0.999224271  0.999772614  0.089401483
     0.498493988  0.998915320  0.090222118
     0.168397985  0.160763346  0.092598441
     0.665379706  0.157977871  0.094553218
     0.338729599  0.319645699  0.089352990
     0.845121094  0.321557189  0.098518924
     0.016263886  0.499506871  0.098286563
     0.498525527  0.514174787  0.102928296
     0.150366244  0.681721388  0.097401179
     0.660290407  0.675786062  0.088164260
     0.334309697  0.835667418  0.091225996
     0.829185682  0.835129991  0.092618162
     0.000395892  0.998349019  0.410546962
     0.502928304  0.997817358  0.409444700
     0.170705472  0.165537884  0.410437816
     0.669600364  0.156373549  0.404675542
     0.333902383  0.332984959  0.412732073
     0.846863313  0.329609969  0.401436971
     0.999658817  0.502220817  0.408975820
     0.490940430  0.512324041  0.401697993
     0.164857484  0.665198613  0.408024009
     0.665791204  0.669044982  0.411938905
     0.332814135  0.835404622  0.410866580
     0.835675204  0.831103018  0.409924226
     0.168450071  0.997971439  0.588237490
     0.668290456  0.997836526  0.587917808
     0.332743846  0.165150975  0.589514474
     0.843623504  0.155203416  0.596009369
     0.492165064  0.330069559  0.596076387
     0.000790851  0.331967797  0.586399413
     0.165331127  0.501131096  0.593543986
     0.664170948  0.511442184  0.599773748
     0.331240767  0.667608329  0.587680934
     0.834122810  0.667197868  0.590855868
     0.500695054  0.833890919  0.591866840
     0.997729998  0.830754665  0.591839552
     0.169163561  0.998900317  0.908967558
     0.669675762  0.997756322  0.911252338
     0.337665069  0.160234798  0.908097103
     0.844820322  0.155222313  0.904093700
     0.499387623  0.320702360  0.900318037
     0.011814817  0.316555016  0.906719470
     0.149117796  0.501157407  0.903451047
     0.653622893  0.511972338  0.897935820
     0.334515308  0.675301742  0.911280825
     0.829224108  0.680021150  0.904015545
     0.498499368  0.836802667  0.908908847
     0.000239052  0.832534312  0.908043303

  ion indices of the primitive-cell ions
   primitive index   ion index
                 1           1
                 2           2
                 3           3
                 4           4
                 5           5
                 6           6
                 7           7
                 8           8
                 9           9
                10          10
                11          11
                12          12
                13          13
                14          14
                15          15
                16          16
                17          17
                18          18
                19          19
                20          20
                21          21
                22          22
                23          23
                24          24
                25          25
                26          26
                27          27
                28          28
                29          29
                30          30
                31          31
                32          32
                33          33
                34          34
                35          35
                36          36
                37          37
                38          38
                39          39
                40          40
                41          41
                42          42
                43          43
                44          44
                45          45
                46          46
                47          47
                48          48
                49          49
                50          50
                51          51
                52          52
                53          53
                54          54
                55          55
                56          56
                57          57
                58          58
                59          59
                60          60
                61          61
                62          62
                63          63
                64          64
                65          65
                66          66
                67          67
                68          68
                69          69
                70          70
                71          71
                72          72
                73          73
                74          74
                75          75
                76          76
                77          77
                78          78
                79          79
                80          80
                81          81
                82          82
                83          83
                84          84
                85          85
                86          86
                87          87
                88          88

----------------------------------------------------------------------------------------

 
 
 KPOINTS: K-Spacing Value to Generate K-Mesh: 0.04

Automatic generation of k-mesh.
 Grid dimensions read from file:
 generate k-points for:    4    4    1

 Generating k-lattice:

  Cartesian coordinates                     Fractional coordinates (reciprocal lattice)
     0.025164095 -0.014307630 -0.000125589     0.250000000  0.000000000  0.000000000
    -0.000131661  0.028807536  0.000130727     0.000000000  0.250000000  0.000000000
     0.000012075 -0.000413599  0.089245647    -0.000000000 -0.000000000  1.000000000

  Length of vectors
     0.028947465  0.028808134  0.089246606

  Shift w.r.t. Gamma in fractional coordinates (k-lattice)
     0.000000000  0.000000000  0.000000000

 
 Subroutine IBZKPT returns following result:
 ===========================================
 
 Found     10 irreducible k-points:
 
 Following reciprocal coordinates:
            Coordinates               Weight
  0.000000  0.000000  0.000000      1.000000
  0.250000  0.000000 -0.000000      2.000000
  0.500000  0.000000 -0.000000      1.000000
 -0.000000  0.250000 -0.000000      2.000000
  0.250000  0.250000  0.000000      2.000000
  0.500000  0.250000  0.000000      2.000000
 -0.250000  0.250000 -0.000000      2.000000
 -0.000000  0.500000  0.000000      1.000000
  0.250000  0.500000  0.000000      2.000000
  0.500000  0.500000 -0.000000      1.000000
 
 Following cartesian coordinates:
            Coordinates               Weight
  0.000000  0.000000  0.000000      1.000000
  0.025164 -0.014308 -0.000126      2.000000
  0.050328 -0.028615 -0.000251      1.000000
 -0.000132  0.028808  0.000131      2.000000
  0.025032  0.014500  0.000005      2.000000
  0.050197  0.000192 -0.000120      2.000000
 -0.025296  0.043115  0.000256      2.000000
 -0.000263  0.057615  0.000261      1.000000
  0.024901  0.043307  0.000136      2.000000
  0.050065  0.029000  0.000010      1.000000
 


--------------------------------------------------------------------------------------------------------




 Dimension of arrays:
   k-points           NKPTS =     10   k-points in BZ     NKDIM =     10   number of bands    NBANDS=    480
   number of dos      NEDOS =    301   number of ions     NIONS =     88
   non local maximal  LDIM  =      6   non local SUM 2l+1 LMDIM =     18
   total plane-waves  NPLWV = 777600
   max r-space proj   IRMAX =   8917   max aug-charges    IRDMAX= 228963
   dimension x,y,z NGX =    90 NGY =   90 NGZ =   96
   dimension x,y,z NGXF=   180 NGYF=  180 NGZF=  192
   support grid    NGXF=   360 NGYF=  360 NGZF=  384
   ions per type =              16  12  12  48
   NGX,Y,Z   is equivalent  to a cutoff of  15.02, 14.95, 14.24 a.u.
   NGXF,Y,Z  is equivalent  to a cutoff of  30.04, 29.90, 28.49 a.u.

 SYSTEM =  NFMO_p2                                 
 POSCAR =  Fe05Mn05                                

 Startparameter for this run:
   NWRITE =      2    write-flag & timer
   PREC   = accura    normal or accurate (medium, high low for compatibility)
   ISTART =      1    job   : 0-new  1-cont  2-samecut
   ICHARG =      1    charge: 1-file 2-atom 10-const
   ISPIN  =      2    spin polarized calculation?
   LNONCOLLINEAR =      F non collinear calculations
   LSORBIT =      F    spin-orbit coupling
   INIWAV =      1    electr: 0-lowe 1-rand  2-diag
   LASPH  =      T    aspherical Exc in radial PAW
 Electronic Relaxation 1
   ENCUT  =  680.0 eV  49.98 Ry    7.07 a.u.  21.18 21.28 23.82*2*pi/ulx,y,z
   ENINI  =  680.0     initial cutoff
   ENAUG  =  605.4 eV  augmentation charge cutoff
   NELM   =    500;   NELMIN=  2; NELMDL=  0     # of ELM steps 
   EDIFF  = 0.1E-04   stopping-criterion for ELM
   LREAL  =      T    real-space projection
   NLSPLINE    = F    spline interpolate recip. space projectors
   LCOMPAT=      F    compatible to vasp.4.4
   GGA_COMPAT  = T    GGA compatible to vasp.4.4-vasp.4.6
   LMAXPAW     = -100 max onsite density
   LMAXMIX     =    6 max onsite mixed and CHGCAR
   VOSKOWN=      0    Vosko Wilk Nusair interpolation
   ROPT   =   -0.00025  -0.00025  -0.00025  -0.00025
 Ionic relaxation
   EDIFFG = -.1E-01   stopping-criterion for IOM
   NSW    =      0    number of steps for IOM
   NBLOCK =      1;   KBLOCK =      1    inner block; outer block 
   IBRION =     -1    ionic relax: 0-MD 1-quasi-New 2-CG
   NFREE  =      0    steps in history (QN), initial steepest desc. (CG)
   ISIF   =      3    stress and relaxation
   IWAVPR =     10    prediction:  0-non 1-charg 2-wave 3-comb
   ISYM   =      2    0-nonsym 1-usesym 2-fastsym
   LCORR  =      T    Harris-Foulkes like correction to forces

   POTIM  = 0.5000    time-step for ionic-motion
   TEIN   =    0.0    initial temperature
   TEBEG  =    0.0;   TEEND  =   0.0 temperature during run
   SMASS  =  -3.00    Nose mass-parameter (am)
   estimated Nose-frequenzy (Omega)   =  0.10E-29 period in steps = 0.13E+47 mass=  -0.227E-26a.u.
   SCALEE = 1.0000    scale energy and forces
   NPACO  =    256;   APACO  = 10.0  distance and # of slots for P.C.
   PSTRESS=    0.0 pullay stress

  Mass of Ions in am
   POMASS =  22.99 55.85 54.94 16.00
  Ionic Valenz
   ZVAL   =   7.00  8.00 13.00  6.00
  Atomic Wigner-Seitz radii
   RWIGS  =  -1.00 -1.00 -1.00 -1.00
  virtual crystal weights 
   VCA    =   1.00  1.00  1.00  1.00
   NELECT =     652.0000    total number of electrons
   NUPDOWN=      -1.0000    fix difference up-down

 DOS related values:
   EMIN   =  10.00;   EMAX   =-10.00  energy-range for DOS
   EFERMI =   0.00
   ISMEAR =     0;   SIGMA  =   0.05  broadening in eV -4-tet -1-fermi 0-gaus

 Electronic relaxation 2 (details)
   IALGO  =     38    algorithm
   LDIAG  =      T    sub-space diagonalisation (order eigenvalues)
   LSUBROT=      F    optimize rotation matrix (better conditioning)
   TURBO    =      0    0=normal 1=particle mesh
   IRESTART =      0    0=no restart 2=restart with 2 vectors
   NREBOOT  =      0    no. of reboots
   NMIN     =      0    reboot dimension
   EREF     =   0.00    reference energy to select bands
   IMIX   =      4    mixing-type and parameters
     AMIX     =   0.40;   BMIX     =  1.00
     AMIX_MAG =   1.60;   BMIX_MAG =  1.00
     AMIN     =   0.10
     WC   =   100.;   INIMIX=   1;  MIXPRE=   1;  MAXMIX= -45

 Intra band minimization:
   WEIMIN = 0.0000     energy-eigenvalue tresh-hold
   EBREAK =  0.52E-08  absolut break condition
   DEPER  =   0.30     relativ break condition  

   TIME   =   0.40     timestep for ELM

  volume/ion in A,a.u.               =      11.01        74.27
  Fermi-wavevector in a.u.,A,eV,Ry     =   1.434769  2.711320 28.008430  2.058562
  Thomas-Fermi vector in A             =   2.554141
 
 Write flags
   LWAVE        =      T    write WAVECAR
   LDOWNSAMPLE  =      F    k-point downsampling of WAVECAR
   LCHARG       =      T    write CHGCAR
   LVTOT        =      F    write LOCPOT, total local potential
   LVHAR        =      F    write LOCPOT, Hartree potential only
   LELF         =      F    write electronic localiz. function (ELF)
   LORBIT       =     11    0 simple, 1 ext, 2 COOP (PROOUT), +10 PAW based schemes


 Dipole corrections
   LMONO  =      F    monopole corrections only (constant potential shift)
   LDIPOL =      F    correct potential (dipole corrections)
   IDIPOL =      0    1-x, 2-y, 3-z, 4-all directions 
   EPSILON=  1.0000000 bulk dielectric constant

 Exchange correlation treatment:
   GGA     =    --    GGA type
   LEXCH   =     8    internal setting for exchange type
   LIBXC   =     F    Libxc                    
   VOSKOWN =     0    Vosko Wilk Nusair interpolation
   LHFCALC =     F    Hartree Fock is set to
   LHFONE  =     F    Hartree Fock one center treatment
   AEXX    =    0.0000 exact exchange contribution

 Linear response parameters
   LEPSILON=     F    determine dielectric tensor
   LRPA    =     F    only Hartree local field effects (RPA)
   LNABLA  =     F    use nabla operator in PAW spheres
   LVEL    =     F    velocity operator in full k-point grid
   CSHIFT  =0.1000    complex shift for real part using Kramers Kronig
   OMEGAMAX=  -1.0    maximum frequency
   DEG_THRESHOLD= 0.2000000E-02 threshold for treating states as degnerate
   RTIME   =   -0.100 relaxation time in fs
  (WPLASMAI=    0.000 imaginary part of plasma frequency in eV, 0.658/RTIME)
   DFIELD  = 0.0000000 0.0000000 0.0000000 field for delta impulse in time
 
  Optional k-point grid parameters
   LKPOINTS_OPT  =     F    use optional k-point grid
   KPOINTS_OPT_MODE=     1    mode for optional k-point grid
 
 Orbital magnetization related:
   ORBITALMAG=     F  switch on orbital magnetization
   LCHIMAG   =     F  perturbation theory with respect to B field
   DQ        =  0.001000  dq finite difference perturbation B field
   LLRAUG    =     F  two centre corrections for induced B field



--------------------------------------------------------------------------------------------------------


 Static calculation
 charge density and potential will be updated during run
 spin polarized calculation
 Variant of blocked Davidson
 Davidson routine will perform the subspace rotation
 perform sub-space diagonalisation
    after iterative eigenvector-optimisation
 modified Broyden-mixing scheme, WC =      100.0
 initial mixing is a Kerker type mixing with AMIX =  0.4000 and BMIX =      1.0000
 Hartree-type preconditioning will be used
 using additional bands          154
 real space projection scheme for non local part
 use partial core corrections
 calculate Harris-corrections to forces 
   (improved forces if not selfconsistent)
 use gradient corrections 
 use of overlap-Matrix (Vanderbilt PP)
 Gauss-broadening in eV      SIGMA  =   0.05


--------------------------------------------------------------------------------------------------------


  energy-cutoff  :      680.00
  volume of cell :      968.56
      direct lattice vectors                 reciprocal lattice vectors
     9.960671017  0.045529140 -0.001136684     0.100656380 -0.057230519 -0.000502355
     4.947191268  8.700715167  0.039653106    -0.000526645  0.115230146  0.000522906
     0.027081170 -0.050722786 11.204789569     0.000012075 -0.000413599  0.089245647

  length of vectors
     9.960775136 10.008931922 11.204937103     0.115789859  0.115232536  0.089246606


 
 old parameters found on file WAVECAR:
  energy-cutoff  :      680.00
  volume of cell :      968.56
      direct lattice vectors                 reciprocal lattice vectors
     9.960671017  0.045529140 -0.001136684     0.100656380 -0.057230519 -0.000502355
     4.947191268  8.700715167  0.039653106    -0.000526645  0.115230146  0.000522906
     0.027081170 -0.050722786 11.204789569     0.000012075 -0.000413599  0.089245647

  length of vectors

 
 k-points in units of 2pi/SCALE and weight: K-Spacing Value to Generate K-Mesh: 0.04
   0.00000000  0.00000000  0.00000000       0.062
   0.02516409 -0.01430763 -0.00012559       0.125
   0.05032819 -0.02861526 -0.00025118       0.062
  -0.00013166  0.02880754  0.00013073       0.125
   0.02503243  0.01449991  0.00000514       0.125
   0.05019653  0.00019228 -0.00012045       0.125
  -0.02529576  0.04311517  0.00025632       0.125
  -0.00026332  0.05761507  0.00026145       0.062
   0.02490077  0.04330744  0.00013586       0.125
   0.05006487  0.02899981  0.00001028       0.062
 
 k-points in reciprocal lattice and weights: K-Spacing Value to Generate K-Mesh: 0.04
   0.00000000  0.00000000  0.00000000       0.062
   0.25000000  0.00000000 -0.00000000       0.125
   0.50000000  0.00000000 -0.00000000       0.062
  -0.00000000  0.25000000 -0.00000000       0.125
   0.25000000  0.25000000  0.00000000       0.125
   0.50000000  0.25000000  0.00000000       0.125
  -0.25000000  0.25000000 -0.00000000       0.125
  -0.00000000  0.50000000  0.00000000       0.062
   0.25000000  0.50000000  0.00000000       0.125
   0.50000000  0.50000000 -0.00000000       0.062
 
 position of ions in fractional coordinates (direct lattice) 
   0.33613466  0.99743764  0.25287722
   0.99745207  0.66911424  0.24966107
   0.33346120  0.99979410  0.74712488
   0.99513198  0.67023475  0.75178746
   0.66540365  0.97486815  0.25072877
   0.85654364  0.14540433  0.25031813
   0.03959942  0.33295219  0.25090208
   0.47108484  0.34195443  0.24952831
   0.67397661  0.52544667  0.24858314
   0.29974725  0.70097121  0.25005271
   0.03757519  0.96339249  0.74922996
   0.66801424  0.14188747  0.74951272
   0.85658265  0.33388647  0.74893490
   0.29487922  0.33258731  0.75098626
   0.46789644  0.52227621  0.75070722
   0.66549578  0.69116652  0.75020398
   0.99840637  0.66733417  0.00103489
   0.16657034  0.33227305  0.00006447
   0.31083123  0.51047397  0.00010029
   0.65893313  0.34515065  0.00010832
   0.16545623  0.83303201  0.00102527
   0.85145282  0.49774820  0.99885082
   0.33027125  0.50139465  0.50063675
   0.66433835  0.34491044  0.49929690
   0.33387512  0.99967714  0.49988043
   0.16617262  0.83104893  0.49975221
   0.16643720  0.33535525  0.50058495
   0.83405820  0.49935644  0.49992461
   0.33019458  0.00080856  0.00014457
   0.83974179  0.99354989  0.99942766
   0.49945351  0.66655955  0.99972024
   0.00065551  0.16566210  0.00032668
   0.49934529  0.16742185  0.99875230
   0.66811583  0.83250462  0.99957819
   0.49728319  0.16802987  0.50090633
   0.83740212  0.99726097  0.50023767
   0.66665515  0.83080024  0.50047097
   0.00554014  0.66039960  0.50063599
   0.49649071  0.66945202  0.50003079
   0.00448928  0.16578182  0.49859811
   0.99922427  0.99977261  0.08940148
   0.49849399  0.99891532  0.09022212
   0.16839798  0.16076335  0.09259844
   0.66537971  0.15797787  0.09455322
   0.33872960  0.31964570  0.08935299
   0.84512109  0.32155719  0.09851892
   0.01626389  0.49950687  0.09828656
   0.49852553  0.51417479  0.10292830
   0.15036624  0.68172139  0.09740118
   0.66029041  0.67578606  0.08816426
   0.33430970  0.83566742  0.09122600
   0.82918568  0.83512999  0.09261816
   0.00039589  0.99834902  0.41054696
   0.50292830  0.99781736  0.40944470
   0.17070547  0.16553788  0.41043782
   0.66960036  0.15637355  0.40467554
   0.33390238  0.33298496  0.41273207
   0.84686331  0.32960997  0.40143697
   0.99965882  0.50222082  0.40897582
   0.49094043  0.51232404  0.40169799
   0.16485748  0.66519861  0.40802401
   0.66579120  0.66904498  0.41193891
   0.33281413  0.83540462  0.41086658
   0.83567520  0.83110302  0.40992423
   0.16845007  0.99797144  0.58823749
   0.66829046  0.99783653  0.58791781
   0.33274385  0.16515097  0.58951447
   0.84362350  0.15520342  0.59600937
   0.49216506  0.33006956  0.59607639
   0.00079085  0.33196780  0.58639941
   0.16533113  0.50113110  0.59354399
   0.66417095  0.51144218  0.59977375
   0.33124077  0.66760833  0.58768093
   0.83412281  0.66719787  0.59085587
   0.50069505  0.83389092  0.59186684
   0.99773000  0.83075466  0.59183955
   0.16916356  0.99890032  0.90896756
   0.66967576  0.99775632  0.91125234
   0.33766507  0.16023480  0.90809710
   0.84482032  0.15522231  0.90409370
   0.49938762  0.32070236  0.90031804
   0.01181482  0.31655502  0.90671947
   0.14911780  0.50115741  0.90345105
   0.65362289  0.51197234  0.89793582
   0.33451531  0.67530174  0.91128082
   0.82922411  0.68002115  0.90401555
   0.49849937  0.83680267  0.90890885
   0.00023905  0.83253431  0.90804330
 
 position of ions in cartesian coordinates  (Angst):
   8.28948977  8.68089806  2.87260547
  13.25228919  5.85452207  2.82279838
   8.28790295  8.67620959  8.41064296
  13.24832108  5.83869636  8.44906606
  11.45751610  8.49962768  2.84726326
   9.25787137  1.29142251  2.80955404
   2.04840967  2.88599863  2.82446254
   6.39079260  2.98403942  2.80893629
   9.31947638  4.58983857  2.80539130
   6.46029408  6.09991473  2.82924292
   5.16065108  8.34591143  8.43312284
   7.37611218  1.22691922  8.40299929
  10.20422021  2.90606251  8.40392391
   4.60290552  2.86908090  8.42749595
   7.26469280  4.52740149  8.43169446
  10.06843390  6.00589003  8.43252815
  13.24625525  5.85168863  0.03692268
   3.30297242  2.89859373  0.01370870
   5.62150272  4.45563540  0.02101233
   8.27094536  3.03305267  0.01415105
   5.76925151  7.25545534  0.04433222
  10.97054701  4.31886673 11.21068267
   5.78377631  4.35213533  5.62903592
   8.33711523  3.00588856  5.60743833
   8.28475160  8.68775180  5.64031586
   5.78008270  7.21293692  5.63238316
   3.33044922  2.90001721  5.62205769
  10.79172974  4.35737455  5.62040303
   3.29296356  0.02206118  0.00127662
  13.30673875  8.63213355 11.23681943
   8.29956331  5.77157585 11.22751841
   0.82610027  1.44139203  0.01022869
   5.82912947  1.42876511 11.19688059
  10.80051129  7.22310292 11.23231519
   5.79811531  1.45921357  5.61864769
  13.28827480  8.68963642  5.64365048
  10.76401371  7.23352321  5.63985790
   3.33586450  5.72080742  5.63570151
   8.27082918  5.82195316  5.62872130
   0.87837321  1.41733450  5.59325557
  14.90143168  8.73969588  1.04023309
   9.90960309  8.70939736  1.04996332
   2.47519162  1.40172624  1.04372939
   7.41173571  1.40001862  1.06495689
   4.95774229  2.79203601  1.01347136
  10.01144611  2.83125799  1.11567392
   2.63581697  4.34182212  1.12106877
   7.51215721  4.49116500  1.17311186
   4.87299252  5.93336921  1.11822117
   9.92256601  5.90541256  1.01390845
   7.46662597  7.28149777  1.05492489
  12.39330180  7.29928244  1.06993999
   4.95408499  8.66554439  4.63967950
   9.95698494  8.68385434  4.62673660
   2.53040376  1.42725150  4.60523941
   7.45423788  1.37052177  4.53974386
   4.98440934  2.89147465  4.63740037
  10.07684180  2.88603741  4.51012423
  12.45293059  4.39444949  4.60126632
   7.43553958  4.45956241  4.52069868
   4.94400571  5.77451337  4.59801296
   9.95277643  5.83058803  4.64146167
   7.45908531  7.26293011  4.63642165
  12.44661260  7.24844571  4.62512061
   6.63096148  8.66089757  6.63045849
  11.60903103  8.68249726  6.62630301
   4.14735018  1.42217931  6.61155616
   9.18701780  1.35855891  6.68335492
   6.55135397  2.86401441  6.69143933
   1.66606597  2.85864944  6.58364468
   4.14207421  4.33762010  6.67021893
   9.16203319  4.44972970  6.73986395
   6.61808149  5.79394221  6.61093742
  11.62517943  5.81310565  6.64592400
   9.12870503  7.24822245  6.66424063
  14.06399020  7.24356575  6.66324553
   6.65134941  8.65274364 10.22420743
  11.63118909  8.66546207 10.24919362
   4.18067519  1.36346972 10.18100693
   9.20737569  1.34315093 10.13537441
   6.58519340  2.76740993 10.10002335
   1.70829674  2.70880161 10.17213982
   3.98910137  4.32139150 10.14268182
   9.06766484  4.43873857 10.08074024
   6.69752236  5.84461560 10.23710745
  11.64830504  5.90857001 10.15532633
   9.12982537  7.25737551 10.21674756
   4.14567848  7.19759631 10.20744642
 


--------------------------------------------------------------------------------------------------------


 k-point   1 :   0.0000 0.0000 0.0000  plane waves:   38963
 k-point   2 :   0.2500 0.0000-0.0000  plane waves:   38983
 k-point   3 :   0.5000 0.0000-0.0000  plane waves:   39018
 k-point   4 :  -0.0000 0.2500-0.0000  plane waves:   38998
 k-point   5 :   0.2500 0.2500 0.0000  plane waves:   38982
 k-point   6 :   0.5000 0.2500 0.0000  plane waves:   38986
 k-point   7 :  -0.2500 0.2500-0.0000  plane waves:   39007
 k-point   8 :  -0.0000 0.5000 0.0000  plane waves:   39036
 k-point   9 :   0.2500 0.5000 0.0000  plane waves:   39002
 k-point  10 :   0.5000 0.5000-0.0000  plane waves:   39022

 maximum and minimum number of plane-waves per node :     19565    19453

 maximum number of plane-waves:     39036
 maximum index in each direction: 
   IXMAX=   21   IYMAX=   21   IZMAX=   23
   IXMIN=  -21   IYMIN=  -21   IZMIN=  -23


 real space projection operators:
  total allocation   :      49198.72 KBytes
  max/ min on nodes  :      24601.67      24597.05


 parallel 3D FFT for wavefunctions:
    minimum data exchange during FFTs selected (reduces bandwidth)
 parallel 3D FFT for charge:
    minimum data exchange during FFTs selected (reduces bandwidth)


 total amount of memory used by VASP MPI-rank0   244075. kBytes
=======================================================================

   base      :      30000. kBytes
   nonlr-proj:      43611. kBytes
   fftplans  :      24157. kBytes
   grid      :      67832. kBytes
   one-center:       1368. kBytes
   wavefun   :      77107. kBytes
 
     INWAV:  cpu time     14.4112: real time     14.6079
 Broyden mixing: mesh for mixing (old mesh)
   NGX = 43   NGY = 43   NGZ = 47
  (NGX  =180   NGY  =180   NGZ  =192)
  gives a total of  86903 points

 initial charge density was supplied:
 number of electron     652.0000012 magnetization      63.3682033
 keeping initial charge density in first step


--------------------------------------------------------------------------------------------------------


 Maximum index for non-local projection operator         4331
 Maximum index for augmentation-charges         4443 (set IRDMAX)


--------------------------------------------------------------------------------------------------------


 First call to EWALD:  gamma=   0.179
 Maximum number of real-space cells 3x 3x 2
 Maximum number of reciprocal cells 3x 3x 3

    FEWALD:  cpu time      0.0023: real time      0.0023


--------------------------------------- Iteration      1(   1)  ---------------------------------------


    POTLOK:  cpu time      0.2607: real time      0.3453
    SETDIJ:  cpu time      1.3505: real time      1.3569
     EDDAV:  cpu time    125.5804: real time    128.4255
       DOS:  cpu time      0.0053: real time      0.0791
    CHARGE:  cpu time     13.1495: real time     13.3332
    MIXING:  cpu time      0.0045: real time      0.0045
    --------------------------------------------
      LOOP:  cpu time    140.3509: real time    143.5446

 eigenvalue-minimisations  : 19800
 total energy-change (2. order) :-0.1014717E+04  (-0.3403019E+01)
 number of electron     652.0000011 magnetization      62.5390783
 augmentation part      234.4411825 magnetization      44.8994518

 Broyden mixing:
  rms(total) = 0.22731E+01    rms(broyden)= 0.22731E+01
  rms(prec ) = 0.25922E+01
  weight for this iteration     100.00

 Free energy of the ion-electron system (eV)
  ---------------------------------------------------
  alpha Z        PSCENC =      2664.63391796
  Ewald energy   TEWEN  =    -39502.94785008
  -Hartree energ DENC   =    -22132.11520207
  -exchange      EXHF   =         0.00000000
  -V(xc)+E(xc)   XCENC  =      3196.92359234
  PAW double counting   =     67400.75075521   -69975.54067792
  entropy T*S    EENTRO =        -0.04659036
  eigenvalues    EBANDS =     -7111.68232708
  atomic energy  EATOM  =     64445.30710782
  Solvation  Ediel_sol  =         0.00000000
  ---------------------------------------------------
  free energy    TOTEN  =     -1014.71727418 eV

  energy without entropy =    -1014.67068382  energy(sigma->0) =    -1014.69397900


--------------------------------------------------------------------------------------------------------




--------------------------------------- Iteration      1(   2)  ---------------------------------------


    POTLOK:  cpu time      0.2676: real time      0.2734
    SETDIJ:  cpu time      1.3935: real time      1.4004
     EDDAV:  cpu time    147.6717: real time    148.9671
       DOS:  cpu time      0.0020: real time      0.0020
    CHARGE:  cpu time     12.9732: real time     13.0765
    MIXING:  cpu time      0.0038: real time      0.1556
    --------------------------------------------
      LOOP:  cpu time    162.3117: real time    163.8749

 eigenvalue-minimisations  : 25560
 total energy-change (2. order) : 0.1457791E+03  (-0.1392250E+02)
 number of electron     652.0000012 magnetization      62.1558840
 augmentation part      239.8053030 magnetization      46.4204497

 Broyden mixing:
  rms(total) = 0.78605E+01    rms(broyden)= 0.78604E+01
  rms(prec ) = 0.98701E+01
  weight for this iteration     100.00

 eigenvalues of (default mixing * dielectric matrix)
  average eigenvalue GAMMA=   0.1618
  0.1618

 Free energy of the ion-electron system (eV)
  ---------------------------------------------------
  alpha Z        PSCENC =      2664.63391796
  Ewald energy   TEWEN  =    -39502.94785008
  -Hartree energ DENC   =    -22041.68130688
  -exchange      EXHF   =         0.00000000
  -V(xc)+E(xc)   XCENC  =      3246.17535415
  PAW double counting   =     67496.69916354   -70051.52461082
  entropy T*S    EENTRO =        -0.04577053
  eigenvalues    EBANDS =     -7125.55416754
  atomic energy  EATOM  =     64445.30710782
  Solvation  Ediel_sol  =         0.00000000
  ---------------------------------------------------
  free energy    TOTEN  =      -868.93816238 eV

  energy without entropy =     -868.89239185  energy(sigma->0) =     -868.91527712


--------------------------------------------------------------------------------------------------------




--------------------------------------- Iteration      1(   3)  ---------------------------------------


    POTLOK:  cpu time      0.3209: real time      0.3233
    SETDIJ:  cpu time      1.3793: real time      1.3860
     EDDAV:  cpu time    145.1454: real time    146.4066
       DOS:  cpu time      0.0016: real time      0.0016
    CHARGE:  cpu time     13.0011: real time     13.1132
    MIXING:  cpu time      0.0032: real time      0.0413
    --------------------------------------------
      LOOP:  cpu time    159.8515: real time    161.2721

 eigenvalue-minimisations  : 24280
 total energy-change (2. order) : 0.1588728E+02  (-0.1204472E+02)
 number of electron     652.0000012 magnetization      62.0977361
 augmentation part      239.2568700 magnetization      44.4515180

 Broyden mixing:
  rms(total) = 0.33168E+01    rms(broyden)= 0.33167E+01
  rms(prec ) = 0.38158E+01
  weight for this iteration     100.00

 eigenvalues of (default mixing * dielectric matrix)
  average eigenvalue GAMMA=   0.2460
  0.3385  0.1535

 Free energy of the ion-electron system (eV)
  ---------------------------------------------------
  alpha Z        PSCENC =      2664.63391796
  Ewald energy   TEWEN  =    -39502.94785008
  -Hartree energ DENC   =    -22024.76779465
  -exchange      EXHF   =         0.00000000
  -V(xc)+E(xc)   XCENC  =      3250.06682808
  PAW double counting   =     67421.26765213   -69981.04831783
  entropy T*S    EENTRO =        -0.02300985
  eigenvalues    EBANDS =     -7125.53941887
  atomic energy  EATOM  =     64445.30710782
  Solvation  Ediel_sol  =         0.00000000
  ---------------------------------------------------
  free energy    TOTEN  =      -853.05088529 eV

  energy without entropy =     -853.02787544  energy(sigma->0) =     -853.03938036


--------------------------------------------------------------------------------------------------------




--------------------------------------- Iteration      1(   4)  ---------------------------------------


    POTLOK:  cpu time      0.3411: real time      0.3435
    SETDIJ:  cpu time      1.3872: real time      1.3945
     EDDAV:  cpu time    141.5883: real time    142.8275
       DOS:  cpu time      0.0017: real time      0.0017
    CHARGE:  cpu time     13.0184: real time     13.1223
    MIXING:  cpu time      0.0032: real time      0.0305
    --------------------------------------------
      LOOP:  cpu time    156.3399: real time    157.7200

 eigenvalue-minimisations  : 23880
 total energy-change (2. order) :-0.1154371E+01  (-0.4162441E+01)
 number of electron     652.0000012 magnetization      62.1670090
 augmentation part      239.0862979 magnetization      44.5889952

 Broyden mixing:
  rms(total) = 0.33488E+01    rms(broyden)= 0.33487E+01
  rms(prec ) = 0.41121E+01
  weight for this iteration     100.00

 eigenvalues of (default mixing * dielectric matrix)
  average eigenvalue GAMMA=   0.2148
  0.2711  0.2711  0.1021

 Free energy of the ion-electron system (eV)
  ---------------------------------------------------
  alpha Z        PSCENC =      2664.63391796
  Ewald energy   TEWEN  =    -39502.94785008
  -Hartree energ DENC   =    -22037.71877147
  -exchange      EXHF   =         0.00000000
  -V(xc)+E(xc)   XCENC  =      3251.30970278
  PAW double counting   =     67380.13584668   -69943.60006507
  entropy T*S    EENTRO =        -0.04598491
  eigenvalues    EBANDS =     -7111.27916031
  atomic energy  EATOM  =     64445.30710782
  Solvation  Ediel_sol  =         0.00000000
  ---------------------------------------------------
  free energy    TOTEN  =      -854.20525659 eV

  energy without entropy =     -854.15927168  energy(sigma->0) =     -854.18226414


--------------------------------------------------------------------------------------------------------




--------------------------------------- Iteration      1(   5)  ---------------------------------------


    POTLOK:  cpu time      0.3147: real time      0.3188
    SETDIJ:  cpu time      1.3959: real time      1.4026
     EDDAV:  cpu time    142.7076: real time    143.9353
       DOS:  cpu time      0.0015: real time      0.0015
    CHARGE:  cpu time     12.9965: real time     13.1266
    MIXING:  cpu time      0.0031: real time      0.0031
    --------------------------------------------
      LOOP:  cpu time    157.4193: real time    158.7879

 eigenvalue-minimisations  : 24040
 total energy-change (2. order) : 0.1796791E+01  (-0.2332815E+01)
 number of electron     652.0000012 magnetization      62.2202541
 augmentation part      238.9418689 magnetization      44.7326114

 Broyden mixing:
  rms(total) = 0.17750E+01    rms(broyden)= 0.17749E+01
  rms(prec ) = 0.19425E+01
  weight for this iteration     100.00

 eigenvalues of (default mixing * dielectric matrix)
  average eigenvalue GAMMA=   0.2291
  0.3363  0.3363  0.1432  0.1004

 Free energy of the ion-electron system (eV)
  ---------------------------------------------------
  alpha Z        PSCENC =      2664.63391796
  Ewald energy   TEWEN  =    -39502.94785008
  -Hartree energ DENC   =    -22057.92432568
  -exchange      EXHF   =         0.00000000
  -V(xc)+E(xc)   XCENC  =      3252.92290964
  PAW double counting   =     67392.31171587   -69956.65977338
  entropy T*S    EENTRO =        -0.04219680
  eigenvalues    EBANDS =     -7090.00997094
  atomic energy  EATOM  =     64445.30710782
  Solvation  Ediel_sol  =         0.00000000
  ---------------------------------------------------
  free energy    TOTEN  =      -852.40846558 eV

  energy without entropy =     -852.36626878  energy(sigma->0) =     -852.38736718


--------------------------------------------------------------------------------------------------------




--------------------------------------- Iteration      1(   6)  ---------------------------------------


    POTLOK:  cpu time      0.2826: real time      0.2973
    SETDIJ:  cpu time      1.5384: real time      1.5459
     EDDAV:  cpu time    146.8344: real time    148.0842
       DOS:  cpu time      0.0017: real time      0.0017
    CHARGE:  cpu time     12.7992: real time     13.1670
    MIXING:  cpu time      0.0032: real time      0.0032
    --------------------------------------------
      LOOP:  cpu time    161.4594: real time    163.0993

 eigenvalue-minimisations  : 25040
 total energy-change (2. order) :-0.3223166E+00  (-0.3113429E+00)
 number of electron     652.0000012 magnetization      62.2095075
 augmentation part      238.8930180 magnetization      44.9319642

 Broyden mixing:
  rms(total) = 0.16826E+01    rms(broyden)= 0.16826E+01
  rms(prec ) = 0.18253E+01
  weight for this iteration     100.00

 eigenvalues of (default mixing * dielectric matrix)
  average eigenvalue GAMMA=   0.2129
  0.3492  0.3492  0.1203  0.1228  0.1228

 Free energy of the ion-electron system (eV)
  ---------------------------------------------------
  alpha Z        PSCENC =      2664.63391796
  Ewald energy   TEWEN  =    -39502.94785008
  -Hartree energ DENC   =    -22066.53068746
  -exchange      EXHF   =         0.00000000
  -V(xc)+E(xc)   XCENC  =      3253.27330969
  PAW double counting   =     67388.19894151   -69953.23252636
  entropy T*S    EENTRO =        -0.02106189
  eigenvalues    EBANDS =     -7081.41193339
  atomic energy  EATOM  =     64445.30710782
  Solvation  Ediel_sol  =         0.00000000
  ---------------------------------------------------
  free energy    TOTEN  =      -852.73078220 eV

  energy without entropy =     -852.70972031  energy(sigma->0) =     -852.72025125


--------------------------------------------------------------------------------------------------------




--------------------------------------- Iteration      1(   7)  ---------------------------------------


    POTLOK:  cpu time      0.2529: real time      0.3002
    SETDIJ:  cpu time      1.3579: real time      1.3645
     EDDAV:  cpu time    145.0483: real time    147.3807
       DOS:  cpu time      0.0017: real time      0.0017
    CHARGE:  cpu time     12.9849: real time     13.0905
    MIXING:  cpu time      0.0033: real time      0.0033
    --------------------------------------------
      LOOP:  cpu time    159.6490: real time    162.1409

 eigenvalue-minimisations  : 25080
 total energy-change (2. order) :-0.1879164E-01  (-0.1197283E+00)
 number of electron     652.0000012 magnetization      62.1742084
 augmentation part      238.8237120 magnetization      44.9171784

 Broyden mixing:
  rms(total) = 0.14441E+01    rms(broyden)= 0.14441E+01
  rms(prec ) = 0.15664E+01
  weight for this iteration     100.00

 eigenvalues of (default mixing * dielectric matrix)
  average eigenvalue GAMMA=   0.2389
  0.3772  0.3772  0.2177  0.2177  0.1003  0.1435

 Free energy of the ion-electron system (eV)
  ---------------------------------------------------
  alpha Z        PSCENC =      2664.63391796
  Ewald energy   TEWEN  =    -39502.94785008
  -Hartree energ DENC   =    -22070.91757855
  -exchange      EXHF   =         0.00000000
  -V(xc)+E(xc)   XCENC  =      3253.65991275
  PAW double counting   =     67384.44062060   -69949.87788775
  entropy T*S    EENTRO =        -0.01750851
  eigenvalues    EBANDS =     -7077.03030808
  atomic energy  EATOM  =     64445.30710782
  Solvation  Ediel_sol  =         0.00000000
  ---------------------------------------------------
  free energy    TOTEN  =      -852.74957384 eV

  energy without entropy =     -852.73206533  energy(sigma->0) =     -852.74081959


--------------------------------------------------------------------------------------------------------




--------------------------------------- Iteration      1(   8)  ---------------------------------------


    POTLOK:  cpu time      0.3333: real time      0.3360
    SETDIJ:  cpu time      1.3579: real time      1.3646
     EDDAV:  cpu time    144.7227: real time    145.9784
       DOS:  cpu time      0.0017: real time      0.0018
    CHARGE:  cpu time     13.0204: real time     13.1271
    MIXING:  cpu time      0.0034: real time      0.0034
    --------------------------------------------
      LOOP:  cpu time    159.4395: real time    160.8113

 eigenvalue-minimisations  : 24160
 total energy-change (2. order) :-0.1601173E+00  (-0.1680630E+00)
 number of electron     652.0000012 magnetization      62.1662278
 augmentation part      238.7932680 magnetization      44.7871758

 Broyden mixing:
  rms(total) = 0.14434E+01    rms(broyden)= 0.14434E+01
  rms(prec ) = 0.15641E+01
  weight for this iteration     100.00

 eigenvalues of (default mixing * dielectric matrix)
  average eigenvalue GAMMA=   0.3178
  0.6169  0.6169  0.3105  0.3105  0.1552  0.1018  0.1129

 Free energy of the ion-electron system (eV)
  ---------------------------------------------------
  alpha Z        PSCENC =      2664.63391796
  Ewald energy   TEWEN  =    -39502.94785008
  -Hartree energ DENC   =    -22075.89169300
  -exchange      EXHF   =         0.00000000
  -V(xc)+E(xc)   XCENC  =      3253.73983000
  PAW double counting   =     67381.81872973   -69947.78400492
  entropy T*S    EENTRO =        -0.02238962
  eigenvalues    EBANDS =     -7071.76333901
  atomic energy  EATOM  =     64445.30710782
  Solvation  Ediel_sol  =         0.00000000
  ---------------------------------------------------
  free energy    TOTEN  =      -852.90969111 eV

  energy without entropy =     -852.88730149  energy(sigma->0) =     -852.89849630


--------------------------------------------------------------------------------------------------------




--------------------------------------- Iteration      1(   9)  ---------------------------------------


    POTLOK:  cpu time      0.3011: real time      0.3034
    SETDIJ:  cpu time      1.3564: real time      1.3631
     EDDAV:  cpu time    142.2741: real time    143.6577
       DOS:  cpu time      0.0016: real time      0.0016
    CHARGE:  cpu time     13.0828: real time     13.1968
    MIXING:  cpu time      0.0033: real time      0.0034
    --------------------------------------------
      LOOP:  cpu time    157.0192: real time    158.5259

 eigenvalue-minimisations  : 24160
 total energy-change (2. order) :-0.7226120E-01  (-0.1130231E+00)
[...]
   -.899E+01 0.958E+02 -.295E+03   0.100E+02 -.963E+02 0.310E+03   -.222E+01 0.902E+00 -.150E+02   -.417E-01 -.750E-01 -.921E-01
   0.862E+02 -.354E+01 -.345E+03   -.882E+02 0.361E+01 0.363E+03   0.305E+01 0.962E+00 -.175E+02   -.343E-01 -.132E+00 0.562E-01
   0.196E+02 0.107E+03 -.364E+03   -.206E+02 -.109E+03 0.380E+03   0.174E+01 0.342E+01 -.157E+02   -.103E+00 0.155E+00 -.905E-01
   0.711E+02 -.499E+02 -.357E+03   -.728E+02 0.516E+02 0.375E+03   0.156E+01 -.181E+01 -.173E+02   0.453E+00 -.452E+00 0.191E+00
   -.975E+02 0.355E+02 -.366E+03   0.983E+02 -.361E+02 0.384E+03   -.711E+00 0.286E+00 -.179E+02   -.879E-01 0.147E+00 0.828E-02
   0.505E+02 0.579E+02 0.371E+03   -.526E+02 -.587E+02 -.389E+03   0.253E+01 0.107E+01 0.179E+02   -.566E-01 -.120E+00 0.546E-01
   -.518E+01 0.512E+01 0.425E+03   0.420E+01 -.532E+01 -.444E+03   0.912E+00 -.617E-01 0.195E+02   0.884E-01 0.742E-01 0.154E-01
   0.402E+02 -.119E+03 0.368E+03   -.414E+02 0.122E+03 -.384E+03   0.146E+01 -.392E+01 0.158E+02   0.111E+00 0.679E-01 0.676E-01
   0.420E+02 -.121E+03 0.334E+03   -.447E+02 0.125E+03 -.348E+03   0.274E+01 -.394E+01 0.152E+02   -.143E+00 -.306E-01 0.358E-01
   -.378E+02 -.155E+03 0.276E+03   0.397E+02 0.160E+03 -.290E+03   -.218E+01 -.462E+01 0.143E+02   -.531E-01 0.243E+00 0.220E+00
   -.553E+02 -.130E+03 0.343E+03   0.585E+02 0.131E+03 -.362E+03   -.479E+01 -.152E+00 0.191E+02   0.729E-01 -.140E+00 -.873E-01
   -.183E+02 -.476E+01 0.255E+03   0.169E+02 0.359E+01 -.271E+03   0.181E+01 0.213E+01 0.160E+02   0.462E+00 0.715E-01 0.216E+00
   -.552E+02 0.111E+03 0.274E+03   0.588E+02 -.113E+03 -.288E+03   -.245E+01 0.232E+01 0.152E+02   -.297E+00 -.695E-01 -.152E-01
   0.141E+03 0.396E+02 0.331E+03   -.143E+03 -.402E+02 -.350E+03   0.199E+01 0.787E+00 0.190E+02   -.265E+00 -.266E+00 0.203E+00
   -.523E+02 0.138E+03 0.307E+03   0.533E+02 -.140E+03 -.324E+03   -.155E+01 0.763E+00 0.186E+02   0.142E+00 0.185E+00 -.740E-01
   0.176E+02 0.304E+02 0.404E+03   -.183E+02 -.311E+02 -.422E+03   0.831E+00 0.889E+00 0.176E+02   -.571E-01 0.172E-01 0.101E-01
   -.630E+02 0.124E+03 0.319E+03   0.638E+02 -.127E+03 -.337E+03   -.116E+01 0.298E+01 0.180E+02   0.549E-01 -.637E-01 0.724E-01
 -----------------------------------------------------------------------------------------------
   -.673E+00 0.130E+02 -.121E+01   0.306E-12 0.256E-12 0.119E-11   0.575E+00 -.129E+02 0.120E+01   0.565E-01 -.109E+00 0.796E-02
 
 
 POSITION                                       TOTAL-FORCE (eV/Angst)
 -----------------------------------------------------------------------------------
      8.28949      8.68090      2.87261        -0.052959      0.011193      0.017261
     13.25229      5.85452      2.82280        -0.002317     -0.052782     -0.021727
      8.28790      8.67621      8.41064         0.035132      0.003879     -0.045202
     13.24832      5.83870      8.44907         0.088784     -0.046574      0.058730
     11.45752      8.49963      2.84726         0.011411      0.037189      0.018529
      9.25787      1.29142      2.80955        -0.031942      0.093747      0.003683
      2.04841      2.88600      2.82446        -0.087877      0.002858     -0.003280
      6.39079      2.98404      2.80894         0.073852      0.015774     -0.140971
      9.31948      4.58984      2.80539        -0.116639     -0.063712     -0.089119
      6.46029      6.09991      2.82924         0.043233     -0.103312     -0.069801
      5.16065      8.34591      8.43312        -0.017974     -0.001132      0.006143
      7.37611      1.22692      8.40300         0.004844      0.156917     -0.006478
     10.20422      2.90606      8.40392        -0.118332      0.013920      0.057941
      4.60291      2.86908      8.42750         0.113015      0.063579      0.101987
      7.26469      4.52740      8.43169         0.040875     -0.050281      0.106361
     10.06843      6.00589      8.43253        -0.069017     -0.102134      0.005664
     13.24626      5.85169      0.03692         0.613043      0.076285     -0.030422
      3.30297      2.89859      0.01371         0.504905      1.019631      0.132956
      5.62150      4.45564      0.02101         1.370131     -0.736794      0.156046
      8.27095      3.03305      0.01415         0.038086     -1.038603      0.060802
      5.76925      7.25546      0.04433         0.131797     -0.316853     -0.014603
     10.97055      4.31887     11.21068        -1.496197      0.257428      0.367676
      5.78378      4.35214      5.62904         1.085589     -0.404965      0.002996
      8.33712      3.00589      5.60744        -0.323269     -1.135458     -0.082593
      8.28475      8.68775      5.64032        -0.246603     -0.036650      0.100391
      5.78008      7.21294      5.63238         0.264220      0.217978     -0.034721
      3.33045      2.90002      5.62206        -0.136618     -0.199994     -0.078023
     10.79173      4.35737      5.62040        -0.808532     -0.570093     -0.055075
      3.29296      0.02206      0.00128         0.001512     -0.431795     -0.011621
     13.30674      8.63213     11.23682         0.017906      0.662555      0.002986
      8.29956      5.77158     11.22752        -0.715059     -0.911616      0.198394
      0.82610      1.44139      0.01023        -0.543633      0.315809     -0.086799
      5.82913      1.42877     11.19688         0.605306      0.956751     -0.052937
     10.80051      7.22310     11.23232        -0.107224     -0.273884      0.007939
      5.79812      1.45921      5.61865         0.632355      0.168997     -0.069079
     13.28827      8.68964      5.64365        -0.235443      0.444373      0.012665
     10.76401      7.23352      5.63986         0.341304      0.294755     -0.035080
      3.33586      5.72081      5.63570        -0.098834      0.634909     -0.127602
      8.27083      5.82195      5.62872        -0.163712     -0.317126     -0.005793
      0.87837      1.41733      5.59326        -0.462711     -0.065084      0.044595
     14.90143      8.73970      1.04023        -0.282225      0.136757     -0.253985
      9.90960      8.70940      1.04996        -0.114274     -0.153458     -0.251995
      2.47519      1.40173      1.04373        -0.560955     -1.231171      0.227836
      7.41174      1.40002      1.06496         0.245071     -0.030377     -0.357970
      4.95774      2.79204      1.01347         1.128872      0.250153      0.214830
     10.01145      2.83126      1.11567         0.549987      0.742599     -0.918659
      2.63582      4.34182      1.12107        -1.678133      0.684131     -0.012167
      7.51216      4.49116      1.17311        -0.197223      0.213272     -0.979831
      4.87299      5.93337      1.11822         0.102052     -0.634634     -0.692417
      9.92257      5.90541      1.01391         0.923428     -0.449586     -0.617159
      7.46663      7.28150      1.05492         0.269418      0.331300     -0.113205
     12.39330      7.29928      1.06994        -0.068312      0.155242     -0.405485
      4.95408      8.66554      4.63968        -0.079433      0.251238      0.318532
      9.95698      8.68385      4.62674         1.329654     -0.002838     -0.281099
      2.53040      1.42725      4.60524        -1.264385     -0.587920     -1.048379
      7.45424      1.37052      4.53974        -0.011482      0.203427      0.487510
      4.98441      2.89147      4.63740         0.934273     -1.468901     -1.180851
     10.07684      2.88604      4.51012        -0.645079     -0.822226     -0.129653
     12.45293      4.39445      4.60127         1.095993      1.350325     -1.046502
      7.43554      4.45956      4.52070         1.391808      0.249404     -0.055295
      4.94401      5.77451      4.59801        -1.115300      1.007148     -0.355067
      9.95278      5.83059      4.64146        -0.723187      0.912905     -0.290011
      7.45909      7.26293      4.63642        -0.103218     -0.569706     -0.274049
     12.44661      7.24845      4.62512         0.040093     -0.173709      0.178820
      6.63096      8.66090      6.63046        -1.311100      0.297631      0.670531
     11.60903      8.68250      6.62630        -0.093461      0.190968     -0.219229
      4.14735      1.42218      6.61156         1.251463     -0.713105      0.836253
      9.18702      1.35856      6.68335         0.055360      0.168096     -0.589497
      6.55135      2.86401      6.69144         0.613467     -0.984563      0.175094
      1.66607      2.85865      6.58364        -0.925431     -1.355470      1.289821
      4.14207      4.33762      6.67022        -1.065524      1.454076      1.033433
      9.16203      4.44973      6.73986        -1.200949      0.245110      0.121940
      6.61808      5.79394      6.61094         0.989928      0.902012      0.515573
     11.62518      5.81311      6.64592         0.718982      1.162089      0.348910
      9.12871      7.24822      6.66424         0.335037     -0.542012      0.039634
     14.06399      7.24357      6.66325        -0.066339     -0.161483     -0.271933
      6.65135      8.65274     10.22421         0.376560      0.166845      0.295412
     11.63119      8.66546     10.24919         0.024308     -0.184444      0.270119
      4.18068      1.36347     10.18101         0.329112     -1.135448     -0.278198
      9.20738      1.34315     10.13537        -0.135019     -0.021420      0.471585
      6.58519      2.76741     10.10002        -0.313643      0.318951      0.687510
      1.70830      2.70880     10.17214        -1.505970      0.583439      0.036916
      3.98910      4.32139     10.14268         0.866477      1.034997     -0.399253
      9.06766      4.43874     10.08074         0.815951      0.038617      0.790105
      6.69752      5.84462     10.23711        -0.532303     -0.063661      0.362432
     11.64831      5.90857     10.15533        -0.419236     -0.831497      0.855996
      9.12983      7.25738     10.21675         0.116226      0.226791      0.200897
      4.14568      7.19760     10.20745        -0.273748      0.250423      0.189379
 -----------------------------------------------------------------------------------
    total drift:                               -0.041590     -0.032012      0.000563


--------------------------------------------------------------------------------------------------------



  FREE ENERGIE OF THE ION-ELECTRON SYSTEM (eV)
  ---------------------------------------------------
  free  energy   TOTEN  =      -853.44002040 eV

  energy  without entropy=     -853.42114577  energy(sigma->0) =     -853.43058308
 


--------------------------------------------------------------------------------------------------------


    POTLOK:  cpu time      1.5694: real time      1.5777


--------------------------------------------------------------------------------------------------------


 writing wavefunctions
     LOOP+:  cpu time  23057.9318: real time  23290.6173
    4ORBIT:  cpu time      0.0000: real time      0.0000



 total charge

# of ion       s       p       d       tot
------------------------------------------
    1        0.043   5.990   0.000   6.033
    2        0.046   5.995   0.000   6.041
    3        0.043   5.990   0.000   6.032
    4        0.046   5.994   0.000   6.040
    5        0.046   5.991   0.000   6.037
    6        0.044   5.990   0.000   6.034
    7        0.045   5.991   0.000   6.036
    8        0.043   5.988   0.000   6.030
    9        0.042   5.988   0.000   6.031
   10        0.044   5.990   0.000   6.034
   11        0.045   5.991   0.000   6.035
   12        0.043   5.989   0.000   6.033
   13        0.043   5.988   0.000   6.031
   14        0.044   5.991   0.000   6.035
   15        0.043   5.988   0.000   6.031
   16        0.045   5.992   0.000   6.037
   17        0.412   0.661   6.217   7.291
   18        0.421   0.670   5.972   7.063
   19        0.328   0.457   6.164   6.948
   20        0.319   0.447   6.188   6.954
   21        0.408   0.649   6.203   7.260
   22        0.335   0.468   6.129   6.931
   23        0.420   0.672   5.954   7.046
   24        0.316   0.442   6.202   6.960
   25        0.424   0.685   6.149   7.258
   26        0.402   0.644   6.188   7.234
   27        0.426   0.690   5.947   7.063
   28        0.416   0.665   5.946   7.027
   29        0.372   6.439   4.865  11.676
   30        0.361   6.417   4.849  11.627
   31        0.370   6.432   4.861  11.662
   32        0.370   6.435   4.864  11.669
   33        0.373   6.437   4.864  11.674
   34        0.371   6.438   4.858  11.667
   35        0.358   6.415   4.834  11.607
   36        0.361   6.419   4.850  11.630
   37        0.357   6.415   4.872  11.644
   38        0.367   6.430   4.863  11.660
   39        0.357   6.413   4.846  11.616
   40        0.358   6.415   4.837  11.610
   41        1.570   3.473   0.000   5.043
   42        1.567   3.481   0.000   5.049
   43        1.569   3.492   0.000   5.061
   44        1.562   3.453   0.000   5.015
   45        1.570   3.475   0.000   5.045
   46        1.561   3.435   0.000   4.996
   47        1.565   3.474   0.000   5.039
   48        1.560   3.438   0.000   4.998
   49        1.564   3.463   0.000   5.027
   50        1.569   3.457   0.000   5.026
   51        1.566   3.476   0.000   5.042
   52        1.567   3.478   0.000   5.044
   53        1.569   3.467   0.000   5.036
   54        1.568   3.497   0.000   5.065
   55        1.569   3.501   0.000   5.070
   56        1.562   3.451   0.000   5.013
   57        1.571   3.508   0.000   5.079
   58        1.562   3.472   0.000   5.033
   59        1.569   3.515   0.000   5.084
   60        1.562   3.470   0.000   5.032
   61        1.567   3.493   0.000   5.061
   62        1.570   3.493   0.000   5.063
   63        1.567   3.482   0.000   5.048
   64        1.567   3.477   0.000   5.044
   65        1.567   3.493   0.000   5.060
   66        1.569   3.472   0.000   5.041
   67        1.569   3.501   0.000   5.070
   68        1.562   3.450   0.000   5.012
   69        1.563   3.469   0.000   5.032
   70        1.571   3.511   0.000   5.082
   71        1.569   3.514   0.000   5.084
   72        1.561   3.478   0.000   5.039
   73        1.569   3.489   0.000   5.059
   74        1.568   3.499   0.000   5.066
   75        1.568   3.486   0.000   5.053
   76        1.566   3.478   0.000   5.044
   77        1.567   3.479   0.000   5.046
   78        1.570   3.477   0.000   5.047
   79        1.568   3.495   0.000   5.063
   80        1.563   3.449   0.000   5.012
   81        1.561   3.440   0.000   5.001
   82        1.570   3.473   0.000   5.043
   83        1.563   3.487   0.000   5.050
   84        1.560   3.443   0.000   5.003
   85        1.567   3.459   0.000   5.026
   86        1.566   3.461   0.000   5.028
   87        1.567   3.479   0.000   5.046
   88        1.566   3.473   0.000   5.038
--------------------------------------------------
tot         84.887 346.980 131.522 563.388



 magnetization (x)

# of ion       s       p       d       tot
------------------------------------------
    1        0.002   0.001   0.000   0.002
    2        0.002   0.002   0.000   0.004
    3        0.002   0.001   0.000   0.002
    4        0.002   0.001   0.000   0.003
    5        0.003   0.001   0.000   0.004
    6        0.003   0.001   0.000   0.003
    7        0.002   0.000   0.000   0.002
    8        0.003   0.001   0.000   0.004
    9        0.001   0.000   0.000   0.001
   10        0.002   0.000   0.000   0.002
   11        0.003   0.001   0.000   0.005
   12        0.002   0.000   0.000   0.003
   13        0.003   0.001   0.000   0.004
   14        0.002   0.000   0.000   0.002
   15        0.002   0.001   0.000   0.002
   16        0.002   0.000   0.000   0.002
   17        0.014   0.015   1.050   1.079
   18        0.023   0.023   3.966   4.012
   19        0.009   0.004   0.401   0.414
   20        0.008   0.004   0.241   0.253
   21        0.016   0.016   1.018   1.050
   22        0.014   0.008   0.783   0.805
   23        0.027   0.023   4.004   4.054
   24        0.006   0.000   0.232   0.239
   25        0.026   0.025   2.820   2.872
   26        0.021   0.019   1.031   1.071
   27        0.028   0.024   4.033   4.085
   28        0.027   0.023   4.007   4.057
   29        0.018   0.029   2.772   2.819
   30        0.018   0.030   2.804   2.852
   31        0.015   0.028   2.768   2.810
   32        0.017   0.029   2.764   2.809
   33        0.016   0.028   2.773   2.817
   34        0.018   0.030   2.772   2.820
   35        0.019   0.030   2.819   2.868
   36        0.018   0.029   2.724   2.772
   37        0.018   0.028   2.561   2.606
   38        0.018   0.029   2.810   2.856
   39        0.017   0.029   2.784   2.830
   40        0.019   0.031   2.819   2.869
   41        0.002   0.014   0.000   0.016
   42        0.002  -0.005   0.000  -0.004
   43        0.009   0.082   0.000   0.091
   44        0.001  -0.016   0.000  -0.015
   45        0.008   0.128   0.000   0.136
   46        0.000   0.007   0.000   0.008
   47        0.007   0.127   0.000   0.134
   48        0.001   0.018   0.000   0.019
   49        0.000   0.036   0.000   0.036
   50        0.002   0.010   0.000   0.012
   51        0.001  -0.012   0.000  -0.011
   52        0.001  -0.002   0.000  -0.001
   53        0.002   0.005   0.000   0.007
   54        0.010   0.091   0.000   0.101
   55        0.012   0.098   0.000   0.110
   56        0.002  -0.011   0.000  -0.009
   57        0.016   0.204   0.000   0.220
   58        0.008   0.124   0.000   0.133
   59        0.016   0.199   0.000   0.215
   60        0.008   0.107   0.000   0.115
   61        0.009   0.107   0.000   0.115
   62        0.009   0.108   0.000   0.117
   63        0.002  -0.022   0.000  -0.020
   64        0.002  -0.010   0.000  -0.009
   65        0.009   0.097   0.000   0.106
   66        0.002  -0.001   0.000   0.001
   67        0.011   0.091   0.000   0.102
   68        0.002   0.011   0.000   0.013
   69        0.009   0.123   0.000   0.131
   70        0.017   0.209   0.000   0.226
   71        0.016   0.208   0.000   0.224
   72        0.009   0.102   0.000   0.111
   73        0.009   0.110   0.000   0.118
   74        0.009   0.095   0.000   0.105
   75        0.004  -0.002   0.000   0.002
   76        0.001  -0.004   0.000  -0.003
   77        0.001   0.008   0.000   0.009
   78        0.002   0.005   0.000   0.007
   79        0.009   0.083   0.000   0.091
   80        0.002   0.013   0.000   0.014
   81        0.002   0.034   0.000   0.036
   82        0.008   0.102   0.000   0.110
   83        0.009   0.130   0.000   0.139
   84        0.002   0.019   0.000   0.021
   85        0.001   0.032   0.000   0.033
   86        0.001   0.016   0.000   0.017
   87        0.002  -0.005   0.000  -0.003
   88        0.000  -0.010   0.000  -0.010
--------------------------------------------------
tot          0.734   3.397  56.755  60.886
 

 total amount of memory used by VASP MPI-rank0   244075. kBytes
=======================================================================

   base      :      30000. kBytes
   nonlr-proj:      43611. kBytes
   fftplans  :      24157. kBytes
   grid      :      67832. kBytes
   one-center:       1368. kBytes
   wavefun   :      77107. kBytes
 
  
  
 General timing and accounting informations for this job:
 ========================================================
  
                  Total CPU time used (sec):    23108.996
                            User time (sec):    22656.303
                          System time (sec):      452.693
                         Elapsed time (sec):    23352.063
  
                   Maximum memory used (kb):      501868.
                   Average memory used (kb):          N/A
  
                          Minor page faults:       944541
                          Major page faults:         2813
                 Voluntary context switches:         6016
