    #         X           Y           Z       CHARGE      MIN DIST   ATOMIC VOL
 --------------------------------------------------------------------------------
    1    7.098656    0.974964    4.230119    6.091504     0.936422     8.728333
    2    0.024675    8.464787    4.304154    6.087167     0.940350     9.122709
    3    2.847226    3.287810    4.253591    6.085958     0.964507     9.127461
    4    4.314601   10.473974    4.384877    6.086481     0.950453     9.086681
    5    2.932468   11.719603    9.963806    6.089002     0.933892     8.982005
    6    4.336580    4.241821    9.856037    6.086399     0.955160     8.997875
    7    7.011667   14.060810   10.043635    6.084546     0.924630     9.319843
    8    8.506342    6.605538    9.862409    6.088550     0.937192     8.915782
    9    5.686719    8.246713    1.460304    5.995718     0.831835     6.875918
   10    1.382324    0.829161    1.223101    5.995739     0.815874     7.035742
   11    4.302553   10.740973    1.484164    6.029864     0.740177     5.889509
   12    8.548408   13.253498    1.649102    5.940665     0.745402     6.280591
   13    2.866832    8.232881    1.414370    6.029642     0.728213     6.087336
   14    5.657757    3.366376    1.454798    6.091020     0.744987     6.180993
   15    7.079787    0.867426    1.395111    6.024869     0.744575     5.856954
   16    5.700064   13.249934    1.851470    6.020589     0.811125     7.137900
   17    4.269815    5.772294    1.488824    6.111872     0.743700     6.287974
   18    1.412031    4.188531    7.065535    6.019102     0.738488     5.904539
   19    0.014415    1.717477    7.033266    6.019328     0.726810     6.057631
   20    5.732730    6.680007    7.050884    6.016385     0.723881     5.985973
   21    1.396192   14.134566    7.008928    5.987633     0.822407     6.921356
   22    4.265902   14.142507    7.119031    5.930425     0.760270     6.250080
   23    2.885266    6.678472    7.041654    5.997668     0.827108     6.888843
   24    7.154350    4.220889    6.844729    6.000841     0.819112     6.994404
   25    4.286438    4.210016    6.995315    6.033795     0.737889     5.854086
   26    4.301714    9.107625    7.425866    6.024200     0.802890     7.139394
   27    0.006107    8.265635    1.379758   11.020887     0.798141     6.583404
   28    2.863962   13.234312    1.552506   11.007322     0.794496     6.688004
   29    8.507620    3.322688    1.404661   11.000183     0.803617     6.722564
   30    1.459525   10.739990    1.492883   11.003086     0.809095     6.651886
   31    4.258026    0.853622    1.404207   10.996374     0.812199     6.731639
   32    7.161702   10.746511    1.540421   10.997330     0.808850     6.734329
   33    7.108475    5.787260    1.474956   11.010066     0.795856     6.665666
   34    2.816518    3.319236    1.346976   11.025124     0.800806     6.528086
   35    1.432597    5.795308    1.446328   11.006501     0.806078     6.680511
   36    8.561633   11.640865    7.135957   10.997725     0.806767     6.696133
   37    2.860897   11.620923    7.037188   11.020717     0.804009     6.541979
   38    7.146441    9.152002    7.167262   11.006754     0.797245     6.635362
   39    2.864117    1.746771    7.098126   11.009290     0.803075     6.662452
   40    7.131162   14.132215    7.095014   11.022750     0.800581     6.599708
   41    5.708411   11.624935    7.137679   11.004703     0.805541     6.617989
   42    5.689316    1.726566    7.085811   11.004999     0.802590     6.674696
   43    0.013863    6.680052    6.978710   11.025834     0.801427     6.547123
   44    1.433769    9.162768    7.143510   11.004810     0.795690     6.582758
   45    8.411048   14.848921    0.536975    7.167174     0.924211    16.018856
   46    4.163970    7.409703    0.469398    7.073622     0.854629    16.600565
   47    7.073896    2.543642    0.462121    7.017875     0.865074    16.249934
   48    2.874557    9.943447    0.492261    7.068129     0.880274    14.807893
   49    5.696371    4.991989    0.461252    7.100493     0.881578    14.934046
   50    1.541674   12.334128    0.522458    7.100331     0.875800    15.329517
   51    2.928490   14.838687    0.548062    7.080067     0.864765    17.030406
   52    7.217032    7.399503    0.440754    7.141817     0.858873    15.316731
   53    1.368332    2.598023    0.377137    7.089030     0.853624    16.821195
   54    5.717079   10.042820    0.533986    7.073544     0.867134    16.796760
   55    8.554796    4.999995    0.481102    7.093676     0.886393    14.525647
   56    4.265284   12.406666    0.611198    7.131016     0.859439    15.036618
   57    5.716960    0.069837    0.469931    7.111481     0.866409    15.244898
   58    1.407007    7.403689    0.436229    7.072030     0.867012    14.618405
   59    4.261043    2.536059    0.414130    7.089058     0.866392    14.887552
   60    0.018490    9.956048    0.503542    7.015970     0.875289    16.225197
   61    2.840774    4.985481    0.442767    7.092927     0.881214    14.782435
   62    7.191224   12.440997    0.672911    7.139539     0.876201    15.236878
   63    8.443930    1.699837    2.360404    7.132964     0.875475    15.329140
   64    4.183555    9.123638    2.438490    7.130331     0.915993    15.228275
   65    7.114370    4.151555    2.401592    7.025092     0.865350    16.069245
   66    2.889563   11.522685    2.497880    7.071559     0.884644    15.169766
   67    5.709876    6.532298    2.438376    7.084956     0.837506    16.832343
   68    1.388572   13.991989    2.483143    7.068071     0.847850    16.847980
   69    2.858418    1.725824    2.342677    7.125512     0.861314    15.430885
   70    7.251220    9.092100    2.457319    7.142846     0.874568    15.113979
   71    1.410791    4.126243    2.377865    7.080456     0.885857    15.034901
   72    5.715400   11.429767    2.592614    7.143975     0.882905    15.822691
   73   -0.003822    6.642287    2.404099    7.059491     0.887470    15.180275
   74    4.156145   14.175652    2.583761    7.086885     0.873707    16.755763
   75    5.669739    1.702961    2.384781    7.082140     0.874330    14.636764
   76    1.438705    9.040339    2.394887    7.102834     0.886810    14.490872
   77    4.200675    4.106809    2.419392    7.096955     0.889627    14.835125
   78    0.053846   11.516389    2.490538    7.048725     0.855293    16.369462
   79    2.812086    6.605675    2.415375    7.018347     0.845768    16.319426
   80    7.137272   14.261990    2.668826    7.179006     0.913775    16.057816
   81    8.463828    0.103608    5.981643    7.142107     0.849400    15.534987
   82    4.416089    7.516561    6.146966    7.124763     0.857696    17.280167
   83    7.153628    2.415199    6.049385    7.169178     0.879948    15.164604
   84    2.820306    9.986487    6.159263    7.119294     0.859791    15.050011
   85    5.616014    5.081520    6.023261    7.066262     0.901167    16.821356
   86    1.401432   12.386701    6.110000    7.085408     0.854000    16.828727
   87    2.961885    0.142950    6.056694    7.084405     0.865895    16.732573
   88    7.177718    7.580592    6.083724    7.078055     0.875130    15.048276
   89    1.441573    2.546067    6.067199    7.077700     0.883589    14.920164
   90    5.763067   10.015982    6.210320    7.114871     0.858350    14.706406
   91    0.137039    5.081563    5.982442    7.085854     0.882177    17.054257
   92    4.312268   12.315420    6.059296    7.093857     0.859972    15.872992
   93    5.687613    0.091316    6.046000    7.094088     0.887171    14.727443
   94    1.375697    7.614893    6.054498    7.137268     0.871711    15.438461
   95    4.276889    2.525127    6.056805    7.081294     0.889434    14.664175
   96   -0.006514    9.997562    6.165438    7.088576     0.879356    14.401129
   97    2.860019    4.896823    6.050662    7.140971     0.881470    15.307934
   98    7.130771   12.467962    6.167475    7.020534     0.882994    15.935063
   99    1.384163    0.954638    7.975974    7.065346     0.874429    16.827060
  100    5.861942    8.242770    8.163840    7.087758     0.852440    16.742223
  101    0.068995    3.341964    7.968631    7.039694     0.862996    16.554759
  102    4.264359   10.938138    8.157353    7.149706     0.869968    15.163124
  103    7.173337    5.895577    7.974497    7.146866     0.866865    14.885729
  104    2.929788   13.255965    8.043632    7.138193     0.857206    15.505216
  105    4.285189    0.996478    8.071438    7.039271     0.843292    16.614954
  106    0.003244    8.286663    8.065868    7.071978     0.866150    14.438481
  107    2.862615    3.383038    8.032578    7.068133     0.875635    14.795260
  108    7.146456   10.824447    8.118863    7.026482     0.864721    16.318351
  109    1.335731    5.811501    8.018082    7.129551     0.877200    15.209747
  110    5.690855   13.319995    8.081265    7.109655     0.890577    14.889781
  111    7.124283    0.841022    8.002543    7.064188     0.891761    15.309219
  112    2.720739    8.326245    8.177942    7.155554     0.836447    17.229122
  113    5.635294    3.366512    7.985434    7.115094     0.869801    15.282244
  114    1.436009   10.852217    8.096728    7.074782     0.891003    15.162643
  115    4.390282    5.765932    8.033615    7.116318     0.928534    15.260140
  116    8.471495   13.284837    8.110411    7.125605     0.860520    15.811412
 --------------------------------------------------------------------------------
    VACUUM CHARGE:               0.0000
    VACUUM VOLUME:               0.0000
    NUMBER OF ELECTRONS:       866.0000
