 vasp.6.5.1 10Mar25 (build Aug 06 2025 12:35:23) complex                        
  
 executed on             LinuxIFC date 2025.11.24  03:31:20
 running  128 mpi-ranks, on    2 nodes
 distrk:  each k-point on   64 cores,    2 groups
 distr:  one band on NCORE=   8 cores,    8 groups


--------------------------------------------------------------------------------------------------------


 INCAR:
   SYSTEM = NFMO_o2
   PREC = ACCURATE
   ICHARG = 1
   LASPH = .TRUE.
   LWAVE = T
   LCHARG = T
   METAGGA = R2SCAN
   ISPIN = 2
   MAGMOM = 8*0.0  18*4.2  18*3.2  72*0.0
   LORBIT = 11
   LORBMOM = True
   ENCUT = 480
   SIGMA = 0.05
   ISMEAR = 0
   NELM = 150
   NELMIN = 2
   LREAL = AUTO
   NSW = 15
   IBRION = 2
   ISIF = 2
   EDIFF = 1.0E-06
   EDIFFG = -0.01
   NEDOS = 5001
   EMIN = -10
   EMAX = 10
   ADDGRID = .TRUE.
   LPLANE = .TRUE.
   KPAR = 2
   NPAR = 8
   LSCALU = .FALSE.
   NSIM = 4
   NGXF = 128
   NGYF = 224
   NGZF = 168

 POTCAR:    PAW_PBE Na_pv 19Sep2006               
 POTCAR:    PAW_PBE Fe 06Sep2000                  
 POTCAR:    PAW_PBE Mn_pv 02Aug2007               
 POTCAR:    PAW_PBE O 08Apr2002                   
 POTCAR:    PAW_PBE Na_pv 19Sep2006               
   VRHFIN =Na: p6s1                                                                                 
   LEXCH  = PE                                                                                      
   EATOM  =   766.0439 eV,   56.3026 Ry                                                             
                                                                                                    
   TITEL  = PAW_PBE Na_pv 19Sep2006                                                                 
   LULTRA =        F    use ultrasoft PP ?                                                          
   IUNSCR =        1    unscreen: 0-lin 1-nonlin 2-no                                               
   RPACOR =    1.800    partial core radius                                                         
   POMASS =   22.990; ZVAL   =    7.000    mass and valenz                                          
   RCORE  =    2.200    outmost cutoff radius                                                       
   RWIGS  =    2.200; RWIGS  =    1.164    wigner-seitz radius (au A)                               
   ENMAX  =  259.561; ENMIN  =  194.671 eV                                                          
   ICORE  =        2    local potential                                                             
   LCOR   =        T    correct aug charges                                                         
   LPAW   =        T    paw PP                                                                      
   EAUG   =  368.056                                                                                
   DEXC   =    0.000                                                                                
   RMAX   =    2.245    core radius for proj-oper                                                   
   RAUG   =    1.300    factor for augmentation sphere                                              
   RDEP   =    2.259    radius for radial grids                                                     
   RDEPT  =    1.738    core radius for aug-charge                                                  
                                                                                                    
   Atomic configuration                                                                             
    5 entries                                                                                       
     n  l   j            E        occ.                                                              
     1  0  0.50     -1033.6933   2.0000                                                             
     2  0  0.50       -56.7526   2.0000                                                             
     2  1  1.50       -28.6721   6.0000                                                             
     3  0  0.50        -2.7440   1.0000                                                             
     3  2  1.50        -1.3606   0.0000                                                             
   Description                                                                                      
     l       E           TYP  RCUT    TYP  RCUT                                                     
     1    -28.6720912     23  2.000                                                                 
     1      6.8029130     23  2.000                                                                 
     0     -2.7439560     23  2.200                                                                 
     0     34.0145650     23  2.200                                                                 
     2     -1.3605826     23  2.200                                                                 
  local pseudopotential read in
  partial core-charges read in
  partial kinetic energy density read in
  atomic valenz-charges read in
  non local Contribution for L=           1  read in
    real space projection operators read in
  non local Contribution for L=           1  read in
    real space projection operators read in
  non local Contribution for L=           0  read in
    real space projection operators read in
  non local Contribution for L=           0  read in
    real space projection operators read in
    PAW grid and wavefunctions read in
 
   number of l-projection  operators is LMAX  =           4
   number of lm-projection operators is LMMAX =           8
 
 POTCAR:    PAW_PBE Fe 06Sep2000                  
   VRHFIN =Fe:  d7 s1                                                                               
   LEXCH  = PE                                                                                      
   EATOM  =   594.3153 eV,   43.6809 Ry                                                             
                                                                                                    
   TITEL  = PAW_PBE Fe 06Sep2000                                                                    
   LULTRA =        F    use ultrasoft PP ?                                                          
   IUNSCR =        1    unscreen: 0-lin 1-nonlin 2-no                                               
   RPACOR =    2.000    partial core radius                                                         
   POMASS =   55.847; ZVAL   =    8.000    mass and valenz                                          
   RCORE  =    2.300    outmost cutoff radius                                                       
   RWIGS  =    2.460; RWIGS  =    1.302    wigner-seitz radius (au A)                               
   ENMAX  =  267.882; ENMIN  =  200.911 eV                                                          
   RCLOC  =    1.701    cutoff for local pot                                                        
   LCOR   =        T    correct aug charges                                                         
   LPAW   =        T    paw PP                                                                      
   EAUG   =  511.368                                                                                
   DEXC   =    0.000                                                                                
   RMAX   =    2.356    core radius for proj-oper                                                   
   RAUG   =    1.300    factor for augmentation sphere                                              
   RDEP   =    2.442    radius for radial grids                                                     
   RDEPT  =    1.890    core radius for aug-charge                                                  
                                                                                                    
   Atomic configuration                                                                             
    9 entries                                                                                       
     n  l   j            E        occ.                                                              
     1  0  0.50     -6993.8440   2.0000                                                             
     2  0  0.50      -814.6047   2.0000                                                             
     2  1  1.50      -693.3689   6.0000                                                             
     3  0  0.50       -89.4732   2.0000                                                             
     3  1  1.50       -55.6373   6.0000                                                             
     3  2  2.50        -3.8151   7.0000                                                             
     4  0  0.50        -4.2551   1.0000                                                             
     4  1  1.50        -3.4015   0.0000                                                             
     4  3  2.50        -1.3606   0.0000                                                             
   Description                                                                                      
     l       E           TYP  RCUT    TYP  RCUT                                                     
     2     -3.8151135     23  2.300                                                                 
     2     -5.1756961     23  2.300                                                                 
     0     -4.2550963     23  2.300                                                                 
     0      7.2035603     23  2.300                                                                 
     1     -2.7211652     23  2.300                                                                 
     1     18.4316424     23  2.300                                                                 
  local pseudopotential read in
  partial core-charges read in
  partial kinetic energy density read in
  atomic valenz-charges read in
  non local Contribution for L=           2  read in
    real space projection operators read in
  non local Contribution for L=           2  read in
    real space projection operators read in
  non local Contribution for L=           0  read in
    real space projection operators read in
  non local Contribution for L=           0  read in
    real space projection operators read in
  non local Contribution for L=           1  read in
    real space projection operators read in
  non local Contribution for L=           1  read in
    real space projection operators read in
    PAW grid and wavefunctions read in
 
   number of l-projection  operators is LMAX  =           6
   number of lm-projection operators is LMMAX =          18
 
 POTCAR:    PAW_PBE Mn_pv 02Aug2007               
   VRHFIN =Mn: 3p4s3d                                                                               
   LEXCH  = PE                                                                                      
   EATOM  =  2025.2664 eV,  148.8529 Ry                                                             
                                                                                                    
   TITEL  = PAW_PBE Mn_pv 02Aug2007                                                                 
   LULTRA =        F    use ultrasoft PP ?                                                          
   IUNSCR =        1    unscreen: 0-lin 1-nonlin 2-no                                               
   RPACOR =    2.080    partial core radius                                                         
   POMASS =   54.938; ZVAL   =   13.000    mass and valenz                                          
   RCORE  =    2.300    outmost cutoff radius                                                       
   RWIGS  =    2.500; RWIGS  =    1.323    wigner-seitz radius (au A)                               
   ENMAX  =  269.864; ENMIN  =  202.398 eV                                                          
   ICORE  =        3    local potential                                                             
   LCOR   =        T    correct aug charges                                                         
   LPAW   =        T    paw PP                                                                      
   EAUG   =  569.085                                                                                
   DEXC   =    0.000                                                                                
   RMAX   =    2.343    core radius for proj-oper                                                   
   RAUG   =    1.300    factor for augmentation sphere                                              
   RDEP   =    2.338    radius for radial grids                                                     
   RDEPT  =    1.798    core radius for aug-charge                                                  
                                                                                                    
   Atomic configuration                                                                             
    8 entries                                                                                       
     n  l   j            E        occ.                                                              
     1  0  0.50     -6424.8287   2.0000                                                             
     2  0  0.50      -739.1154   2.0000                                                             
     2  1  1.50      -625.3949   6.0000                                                             
     3  0  0.50       -81.6100   2.0000                                                             
     3  1  1.50       -50.4667   6.0000                                                             
     3  2  2.50        -3.3745   6.0000                                                             
     4  0  0.50        -4.1331   1.0000                                                             
     4  3  2.50        -1.3606   0.0000                                                             
   Description                                                                                      
     l       E           TYP  RCUT    TYP  RCUT                                                     
     1    -50.4666628     23  2.000                                                                 
     1     -1.3605826     23  2.000                                                                 
     2     -3.3744729     23  2.300                                                                 
     2     -4.7350555     23  2.300                                                                 
     0     -4.1331431     23  2.300                                                                 
     0      7.6656591     23  2.300                                                                 
     3      9.5240782     23  2.300                                                                 
  local pseudopotential read in
  partial core-charges read in
  partial kinetic energy density read in
  atomic valenz-charges read in
  non local Contribution for L=           1  read in
    real space projection operators read in
  non local Contribution for L=           1  read in
    real space projection operators read in
  non local Contribution for L=           2  read in
    real space projection operators read in
  non local Contribution for L=           2  read in
    real space projection operators read in
  non local Contribution for L=           0  read in
    real space projection operators read in
  non local Contribution for L=           0  read in
    real space projection operators read in
    PAW grid and wavefunctions read in
 
   number of l-projection  operators is LMAX  =           6
   number of lm-projection operators is LMMAX =          18
 
 POTCAR:    PAW_PBE O 08Apr2002                   
   VRHFIN =O: s2p4                                                                                  
   LEXCH  = PE                                                                                      
   EATOM  =   432.3788 eV,   31.7789 Ry                                                             
                                                                                                    
   TITEL  = PAW_PBE O 08Apr2002                                                                     
   LULTRA =        F    use ultrasoft PP ?                                                          
   IUNSCR =        1    unscreen: 0-lin 1-nonlin 2-no                                               
   RPACOR =    1.200    partial core radius                                                         
   POMASS =   16.000; ZVAL   =    6.000    mass and valenz                                          
   RCORE  =    1.520    outmost cutoff radius                                                       
   RWIGS  =    1.550; RWIGS  =    0.820    wigner-seitz radius (au A)                               
   ENMAX  =  400.000; ENMIN  =  300.000 eV                                                          
   ICORE  =        2    local potential                                                             
   LCOR   =        T    correct aug charges                                                         
   LPAW   =        T    paw PP                                                                      
   EAUG   =  605.392                                                                                
   DEXC   =    0.000                                                                                
   RMAX   =    1.553    core radius for proj-oper                                                   
   RAUG   =    1.300    factor for augmentation sphere                                              
   RDEP   =    1.550    radius for radial grids                                                     
   RDEPT  =    1.329    core radius for aug-charge                                                  
                                                                                                    
   Atomic configuration                                                                             
    4 entries                                                                                       
     n  l   j            E        occ.                                                              
     1  0  0.50      -514.6923   2.0000                                                             
     2  0  0.50       -23.9615   2.0000                                                             
     2  1  0.50        -9.0305   4.0000                                                             
     3  2  1.50        -9.5241   0.0000                                                             
   Description                                                                                      
     l       E           TYP  RCUT    TYP  RCUT                                                     
     0    -23.9615318     23  1.200                                                                 
     0     -9.5240782     23  1.200                                                                 
     1     -9.0304911     23  1.520                                                                 
     1      8.1634956     23  1.520                                                                 
     2     -9.5240782      7  1.500                                                                 
  local pseudopotential read in
  partial core-charges read in
  partial kinetic energy density read in
  kinetic energy density of atom read in
  atomic valenz-charges read in
  non local Contribution for L=           0  read in
    real space projection operators read in
  non local Contribution for L=           0  read in
    real space projection operators read in
  non local Contribution for L=           1  read in
    real space projection operators read in
  non local Contribution for L=           1  read in
    real space projection operators read in
    PAW grid and wavefunctions read in
 
   number of l-projection  operators is LMAX  =           4
   number of lm-projection operators is LMMAX =           8
 
 Optimization of the real space projectors (new method)

 maximal supplied QI-value         = 17.01
 optimisation between [QCUT,QGAM] = [ 11.05, 22.28] = [ 34.22,139.00] Ry 
 Optimized for a Real-space Cutoff    1.46 Angstroem

   l    n(q)    QCUT    max X(q) W(low)/X(q) W(high)/X(q)  e(spline) 
   1      9    11.055     4.940    0.16E-03    0.56E-04    0.17E-06
   1      9    11.055     6.253    0.22E-03    0.72E-04    0.23E-06
   0     10    11.055    37.438    0.47E-04    0.16E-04    0.87E-07
   0     10    11.055     9.606    0.23E-04    0.10E-04    0.62E-07
 Optimization of the real space projectors (new method)

 maximal supplied QI-value         = 16.25
 optimisation between [QCUT,QGAM] = [ 11.21, 22.43] = [ 35.21,140.85] Ry 
 Optimized for a Real-space Cutoff    1.55 Angstroem

   l    n(q)    QCUT    max X(q) W(low)/X(q) W(high)/X(q)  e(spline) 
   2      9    11.214    80.901    0.14E-03    0.12E-04    0.26E-06
   2      9    11.214    75.754    0.14E-03    0.12E-04    0.27E-06
   0     10    11.214    58.752    0.63E-04    0.27E-04    0.24E-06
   0     10    11.214    30.679    0.53E-04    0.25E-04    0.23E-06
   1     10    11.214    17.977    0.49E-04    0.11E-04    0.14E-06
   1     10    11.214    13.559    0.41E-04    0.10E-04    0.12E-06
 Optimization of the real space projectors (new method)

 maximal supplied QI-value         = 16.25
 optimisation between [QCUT,QGAM] = [ 11.21, 22.43] = [ 35.21,140.85] Ry 
 Optimized for a Real-space Cutoff    1.50 Angstroem

   l    n(q)    QCUT    max X(q) W(low)/X(q) W(high)/X(q)  e(spline) 
   1     10    11.214     3.658    0.54E-04    0.76E-04    0.12E-06
   1     10    11.214     5.612    0.10E-03    0.13E-03    0.19E-06
   2      9    11.214    55.373    0.13E-03    0.65E-04    0.17E-06
   2      9    11.214    50.863    0.14E-03    0.67E-04    0.17E-06
   0     10    11.214    79.536    0.54E-04    0.12E-04    0.76E-07
   0     10    11.214    38.668    0.46E-04    0.12E-04    0.70E-07
 Optimization of the real space projectors (new method)

 maximal supplied QI-value         = 24.76
 optimisation between [QCUT,QGAM] = [ 11.14, 22.28] = [ 34.75,139.00] Ry 
 Optimized for a Real-space Cutoff    1.22 Angstroem

   l    n(q)    QCUT    max X(q) W(low)/X(q) W(high)/X(q)  e(spline) 
   0      8    11.140    20.381    0.13E-03    0.36E-03    0.24E-06
   0      8    11.140    15.268    0.14E-03    0.38E-03    0.27E-06
   1      8    11.140     5.964    0.19E-03    0.36E-03    0.26E-06
   1      8    11.140     5.382    0.15E-03    0.30E-03    0.24E-06
 -----------------------------------------------------------------------------
|                                                                             |
|               ----> ADVICE to this user running VASP <----                  |
|                                                                             |
|     You enforced a specific xc type in the INCAR file but a different       |
|     type was found in the POTCAR file.                                      |
|     I HOPE YOU KNOW WHAT YOU ARE DOING!                                     |
|                                                                             |
 -----------------------------------------------------------------------------

  PAW_PBE Na_pv 19Sep2006               :
 energy of atom  1       EATOM= -766.0439
 kinetic energy error for atom=    0.0026 (will be added to EATOM!!)
  PAW_PBE Fe 06Sep2000                  :
 energy of atom  2       EATOM= -594.3153
 kinetic energy error for atom=    0.0027 (will be added to EATOM!!)
  PAW_PBE Mn_pv 02Aug2007               :
 energy of atom  3       EATOM=-2025.2664
 kinetic energy error for atom=    0.0072 (will be added to EATOM!!)
  PAW_PBE O 08Apr2002                   :
 energy of atom  4       EATOM= -432.3788
 kinetic energy error for atom=    0.0258 (will be added to EATOM!!)
 
 
 POSCAR:  Sodio_gutxiago
  positions in direct lattice
  velocities in cartesian coordinates


 exchange-correlation table for R2SCAN
   RHO(1)=    0.500       N(1)  =     2000
   RHO(2)=  100.500       N(2)  =     4000
 


--------------------------------------------------------------------------------------------------------


 ion  position               nearest neighbor table
   1  0.828  0.064  0.375-  83 2.32  80 2.35  15 2.84
   2  0.004  0.566  0.377-  94 2.37  27 2.93
   3  0.333  0.219  0.376-  34 2.91
   4  0.504  0.701  0.382-  84 2.37  64 2.37  90 2.37  11 2.91
   5  0.344  0.782  0.879-  50 2.36 102 2.38  37 2.93
   6  0.507  0.281  0.875- 115 2.38  25 2.86
   7  0.819  0.939  0.883-  45 2.35  40 2.95
   8  0.994  0.439  0.873-  52 2.37  43 2.87
   9  0.663  0.553  0.122-  67 1.97  64 2.00  46 2.00  54 2.02  52 2.02  70 2.04  13 2.82  33 2.84
                            17 2.85  11 2.85  27 2.90  32 2.90
  10  0.161  0.055  0.108-  53 1.96  51 1.97  45 1.97  69 2.06  63 2.07  68 2.08  12 2.87  34 2.88
                            31 2.88  15 2.88  29 2.89  28 2.92
  11  0.502  0.720  0.123-  54 1.84  56 1.88  64 1.88  66 1.91  48 1.91  72 1.92  30 2.84   9 2.85
                            32 2.86  28 2.88  13 2.89  16 2.90   4 2.91
  12  0.997  0.888  0.135-  68 1.81  62 1.86  78 1.94  45 1.95  80 2.01  50 2.13  16 2.86  10 2.87
                            32 2.87  28 2.89  15 2.92  30 2.92
  13  0.335  0.552  0.119-  46 1.80  64 1.89  76 1.91  79 1.91  58 1.94  48 1.94   9 2.82  35 2.83
                            17 2.83  27 2.86  30 2.88  11 2.89
  14  0.660  0.225  0.126-  77 1.90  49 1.91  75 1.91  65 1.91  47 1.92  59 1.93  17 2.78  33 2.82
                            34 2.84  29 2.85  15 2.88  31 2.88
  15  0.826  0.058  0.122-  57 1.83  63 1.87  80 1.89  45 1.90  75 1.91  47 1.92  31 2.82   1 2.84
                            29 2.84  14 2.88  10 2.88  16 2.90  12 2.92
  16  0.665  0.888  0.153-  80 1.94  74 1.94  72 1.97  62 2.07  56 2.08  57 2.13  28 2.85  12 2.86
                            15 2.90  11 2.90  31 2.91  32 2.92
  17  0.498  0.387  0.127-  67 1.88  77 1.91  79 1.92  49 1.92  46 1.93  61 1.94  14 2.78  13 2.83
                            35 2.84  33 2.84   9 2.85  34 2.85
  18  0.166  0.278  0.627- 101 1.83 109 1.88  91 1.90  97 1.90 107 1.92  89 1.92  19 2.84  39 2.84
                            24 2.84  43 2.86  25 2.88  23 2.89
  19  0.003  0.112  0.626-  99 1.83 101 1.88  83 1.89  89 1.91  81 1.94 111 1.95  18 2.84  39 2.85
                            21 2.85  40 2.89  24 2.89  42 2.90
  20  0.670  0.445  0.622-  82 1.80 103 1.88 115 1.90  85 1.90 100 1.92  88 1.96  26 2.84  23 2.85
                            24 2.85  38 2.85  43 2.86  25 2.86
  21  0.164  0.945  0.613-  86 1.97  81 1.97  87 1.99 116 2.04 104 2.05  99 2.05  40 2.84  19 2.85
                            36 2.87  22 2.87  37 2.91  39 2.92
  22  0.499  0.946  0.623-  87 1.84 104 1.85  93 1.90 110 1.91 105 2.07  92 2.11  40 2.87  42 2.87
                            21 2.87  39 2.88  37 2.89  41 2.90
  23  0.338  0.445  0.622-  82 1.96 112 2.01 115 2.02 109 2.03  94 2.03  97 2.04  26 2.84  25 2.84
                            20 2.85  43 2.87  44 2.88  18 2.89
  24  0.835  0.281  0.606-  85 1.94  91 1.97  83 1.97 103 2.02 101 2.07 113 2.08  18 2.84  20 2.85
                            43 2.85  25 2.87  19 2.89  42 2.90
  25  0.501  0.280  0.620-  97 1.84  85 1.86 115 1.87 113 1.87  95 1.93 107 1.95  23 2.84  39 2.85
                            42 2.85   6 2.86  20 2.86  24 2.87  18 2.88
  26  0.503  0.608  0.654- 112 1.92 100 1.93 102 1.97  82 2.04  90 2.11  84 2.14  23 2.84  20 2.84
                            38 2.86  44 2.88  41 2.90  37 2.92
  27  0.001  0.554  0.116-  52 1.88  70 1.89  58 1.90  60 1.90  76 1.92  73 1.92  35 2.85  13 2.86
                            32 2.86  30 2.87  33 2.88   9 2.90   2 2.93
  28  0.334  0.887  0.127-  56 1.88  51 1.89  68 1.90  74 1.90  50 1.90  66 1.96  16 2.85  30 2.86
                            11 2.88  31 2.89  12 2.89  10 2.92
  29  0.992  0.222  0.121-  47 1.88  63 1.88  53 1.90  65 1.90  55 1.92  71 1.95  33 2.83  15 2.84
                            14 2.85  34 2.88  10 2.89  35 2.89
  30  0.171  0.720  0.124-  50 1.87  78 1.89  48 1.91  66 1.92  60 1.92  76 1.92  11 2.84  28 2.86
                            27 2.87  32 2.87  13 2.88  12 2.92
  31  0.497  0.057  0.124-  69 1.90  51 1.90  74 1.90  57 1.90  75 1.92  59 1.95  15 2.82  34 2.86
                            14 2.88  10 2.88  28 2.89  16 2.91
  32  0.836  0.720  0.127-  70 1.89  54 1.90  62 1.90  72 1.91  78 1.92  60 1.93  11 2.86  27 2.86
                            12 2.87  30 2.87   9 2.90  16 2.92
  33  0.829  0.388  0.125-  67 1.85  65 1.88  49 1.91  52 1.92  55 1.92  73 1.94  14 2.82  29 2.83
                            17 2.84   9 2.84  27 2.88  35 2.90
  34  0.329  0.222  0.117-  69 1.88  53 1.89  59 1.89  61 1.90  77 1.92  71 1.92  35 2.84  14 2.84
                            17 2.85  31 2.86  10 2.88  29 2.88   3 2.91
  35  0.167  0.388  0.124-  79 1.87  58 1.90  61 1.91  71 1.91  73 1.92  55 1.93  13 2.83  17 2.84
                            34 2.84  27 2.85  29 2.89  33 2.90
  36  1.000  0.778  0.625-  86 1.89  96 1.90 108 1.91 116 1.91  98 1.92 114 1.92  41 2.85  38 2.86
                            21 2.87  44 2.87  40 2.87  37 2.88
  37  0.335  0.777  0.618-  84 1.86  92 1.88  86 1.89 104 1.92 102 1.92 114 1.93  44 2.84  41 2.85
                            36 2.88  22 2.89  21 2.91  26 2.92   5 2.93
  38  0.835  0.611  0.631- 100 1.86  90 1.89 106 1.91  88 1.91  96 1.92 108 1.92  20 2.85  26 2.86
                            41 2.86  44 2.86  36 2.86  43 2.87
  39  0.335  0.114  0.631- 105 1.88 107 1.88  99 1.89  87 1.91  95 1.92  89 1.93  42 2.83  18 2.84
                            25 2.85  19 2.85  22 2.88  21 2.92
  40  0.833  0.945  0.620-  81 1.87 116 1.88  98 1.91  93 1.92 111 1.93 110 1.93  21 2.84  22 2.87
                            36 2.87  41 2.88  19 2.89  42 2.89   7 2.95
  41  0.667  0.777  0.626-  90 1.86  92 1.89 102 1.90 108 1.92  98 1.92 110 1.94  37 2.85  36 2.85
                            38 2.86  40 2.88  26 2.90  22 2.90
  42  0.665  0.113  0.630- 105 1.86 113 1.87 111 1.92  95 1.92  83 1.92  93 1.94  39 2.83  25 2.85
                            22 2.87  40 2.89  19 2.90  24 2.90
  43  0.003  0.445  0.617-  91 1.89 103 1.89 109 1.89  94 1.89  88 1.91 106 1.94  24 2.85  20 2.86
                            18 2.86  44 2.86   8 2.87  38 2.87  23 2.87
  44  0.168  0.612  0.630- 112 1.85  84 1.89  94 1.89 106 1.91  96 1.93 114 1.94  37 2.84  38 2.86
                            43 2.86  36 2.87  23 2.88  26 2.88
  45  0.981  0.996  0.034-  15 1.90  12 1.95  10 1.97   7 2.35
  46  0.486  0.497  0.035-  13 1.80  17 1.93   9 2.00
  47  0.825  0.171  0.038-  29 1.88  14 1.92  15 1.92
  48  0.335  0.667  0.035-  30 1.91  11 1.91  13 1.94
  49  0.664  0.335  0.036-  14 1.91  33 1.91  17 1.92
  50  0.180  0.827  0.036-  30 1.87  28 1.90  12 2.13   5 2.36
  51  0.342  0.995  0.036-  28 1.89  31 1.90  10 1.97
  52  0.842  0.496  0.032-  27 1.88  33 1.92   9 2.02   8 2.37
  53  0.160  0.174  0.031-  34 1.89  29 1.90  10 1.96
  54  0.667  0.674  0.038-  11 1.84  32 1.90   9 2.02
  55  0.998  0.335  0.037-  29 1.92  33 1.92  35 1.93
  56  0.498  0.832  0.044-  28 1.88  11 1.88  16 2.08
  57  0.667  0.005  0.041-  15 1.83  31 1.90  16 2.13
  58  0.164  0.496  0.033-  27 1.90  35 1.90  13 1.94
  59  0.497  0.170  0.034-  34 1.89  14 1.93  31 1.95
  60  0.002  0.668  0.037-  27 1.90  30 1.92  32 1.93
  61  0.331  0.334  0.035-  34 1.90  35 1.91  17 1.94
  62  0.839  0.834  0.048-  12 1.86  32 1.90  16 2.07
  63  0.985  0.113  0.208-  15 1.87  29 1.88  10 2.07
  64  0.488  0.611  0.209-  11 1.88  13 1.89   9 2.00   4 2.37
  65  0.830  0.278  0.209-  33 1.88  29 1.90  14 1.91
  66  0.338  0.772  0.213-  11 1.91  30 1.92  28 1.96
  67  0.666  0.437  0.211-  33 1.85  17 1.88   9 1.97
  68  0.162  0.938  0.210-  12 1.81  28 1.90  10 2.08
  69  0.334  0.115  0.207-  34 1.88  31 1.90  10 2.06
  70  0.846  0.609  0.210-  27 1.89  32 1.89   9 2.04
  71  0.165  0.276  0.208-  35 1.91  34 1.92  29 1.95
  72  0.667  0.766  0.221-  32 1.91  11 1.92  16 1.97
  73  0.000  0.445  0.209-  27 1.92  35 1.92  33 1.94
  74  0.485  0.950  0.218-  31 1.90  28 1.90  16 1.94
  75  0.662  0.113  0.210-  14 1.91  15 1.91  31 1.92
  76  0.168  0.605  0.206-  13 1.91  27 1.92  30 1.92
  77  0.490  0.275  0.212-  14 1.90  17 1.91  34 1.92
  78  0.007  0.772  0.213-  30 1.89  32 1.92  12 1.94
  79  0.328  0.442  0.210-  35 1.87  13 1.91  17 1.92
  80  0.833  0.956  0.225-  15 1.89  16 1.94  12 2.01   1 2.35
  81  0.988  0.005  0.532-  40 1.87  19 1.94  21 1.97
  82  0.516  0.502  0.541-  20 1.80  23 1.96  26 2.04
  83  0.835  0.160  0.536-  19 1.89  42 1.92  24 1.97   1 2.32
  84  0.330  0.667  0.541-  37 1.86  44 1.89  26 2.14   4 2.37
  85  0.656  0.339  0.532-  25 1.86  20 1.90  24 1.94
  86  0.165  0.828  0.535-  36 1.89  37 1.89  21 1.97
  87  0.346  0.007  0.540-  22 1.84  39 1.91  21 1.99
  88  0.838  0.506  0.535-  43 1.91  38 1.91  20 1.96
  89  0.169  0.168  0.539-  19 1.91  18 1.92  39 1.93
  90  0.673  0.669  0.545-  41 1.86  38 1.89  26 2.11   4 2.37
  91  0.017  0.339  0.530-  43 1.89  18 1.90  24 1.97
  92  0.504  0.824  0.530-  37 1.88  41 1.89  22 2.11
  93  0.664  0.004  0.538-  22 1.90  40 1.92  42 1.94
  94  0.161  0.508  0.534-  43 1.89  44 1.89  23 2.03   2 2.37
  95  0.500  0.167  0.537-  39 1.92  42 1.92  25 1.93
  96  0.000  0.668  0.542-  36 1.90  38 1.92  44 1.93
  97  0.335  0.326  0.535-  25 1.84  18 1.90  23 2.04
  98  0.833  0.834  0.539-  40 1.91  36 1.92  41 1.92
  99  0.163  0.061  0.711-  19 1.83  39 1.89  21 2.05
 100  0.685  0.550  0.720-  38 1.86  20 1.92  26 1.93
 101  0.009  0.221  0.708-  18 1.83  19 1.88  24 2.07
 102  0.499  0.731  0.718-  41 1.90  37 1.92  26 1.97   5 2.38
 103  0.838  0.392  0.705-  20 1.88  43 1.89  24 2.02
 104  0.343  0.886  0.706-  22 1.85  37 1.92  21 2.05
 105  0.501  0.064  0.718-  42 1.86  39 1.88  22 2.07
 106  0.002  0.553  0.713-  38 1.91  44 1.91  43 1.94
 107  0.335  0.224  0.713-  39 1.88  18 1.92  25 1.95
 108  0.835  0.723  0.714-  36 1.91  41 1.92  38 1.92
 109  0.157  0.387  0.710-  18 1.88  43 1.89  23 2.03
 110  0.665  0.890  0.709-  22 1.91  40 1.93  41 1.94
 111  0.832  0.053  0.712-  42 1.92  40 1.93  19 1.95
 112  0.319  0.555  0.722-  44 1.85  26 1.92  23 2.01
 113  0.658  0.223  0.709-  42 1.87  25 1.87  24 2.08
 114  0.169  0.725  0.713-  36 1.92  37 1.93  44 1.94
 115  0.513  0.384  0.711-  25 1.87  20 1.90  23 2.02   6 2.38
 116  0.989  0.888  0.711-  40 1.88  36 1.91  21 2.04
 
  LATTYP: Found a triclinic cell.
 ALAT       =    14.1072195056
 B/A-ratio  =     0.6078576612
 C/A-ratio  =     1.0568390429
 COS(alpha) =     0.0002479595
 COS(beta)  =     0.0121372278
 COS(gamma) =     0.6071547725
  
  Lattice vectors:
  
 A1 = (   8.5900261197,  -0.0675102823, -11.1901982021)
 A2 = (   8.5751603882,  -0.0012655068,   0.0189657053)
 A3 = (   0.0017992580, -14.9084326095,  -0.1368017743)


Analysis of symmetry for initial positions (statically):
=====================================================================
 Subroutine PRICEL returns:
 Original cell was already a primitive cell.
 

 Routine SETGRP: Setting up the symmetry group for a 
 triclinic supercell.


 Subroutine GETGRP returns: Found  1 space group operations
 (whereof  1 operations were pure point group operations)
 out of a pool of  2 trial point group operations.


The static configuration has the point symmetry C_1 .


Analysis of symmetry for dynamics (positions and initial velocities):
=====================================================================
 Subroutine PRICEL returns:
 Original cell was already a primitive cell.
 

 Routine SETGRP: Setting up the symmetry group for a 
 triclinic supercell.


 Subroutine GETGRP returns: Found  1 space group operations
 (whereof  1 operations were pure point group operations)
 out of a pool of  2 trial point group operations.


The dynamic configuration has the point symmetry C_1 .


Analysis of structural, dynamic, and magnetic symmetry:
=====================================================================
 Subroutine PRICEL returns:
 Original cell was already a primitive cell.
 

 Routine SETGRP: Setting up the symmetry group for a 
 triclinic supercell.


 Subroutine GETGRP returns: Found  1 space group operations
 (whereof  1 operations were pure point group operations)
 out of a pool of  2 trial point group operations.


The overall configuration has the point symmetry C_1 .


 Subroutine INISYM returns: Found  1 space group operations
 (whereof  1 operations are pure point group operations),
 and found     1 'primitive' translations


----------------------------------------------------------------------------------------

                                     Primitive cell                                     

  volume of cell :    1432.9306

  direct lattice vectors                    reciprocal lattice vectors
     8.575160388 -0.001265507  0.018965705     0.116615555  0.000012656  0.000154582
    -0.001799258 14.908432609  0.136801774     0.000010776  0.067079771 -0.000396419
    -0.014865732  0.066244775 11.209163907    -0.000197443 -0.000818694  0.089217296

  length of vectors
     8.575181455 14.909060361 11.209369512     0.116615658  0.067080944  0.089221271

  position of ions in fractional coordinates (direct lattice)
     0.828488834  0.063805349  0.375208634
     0.003652817  0.566118126  0.377076898
     0.332737155  0.218891703  0.376241969
     0.503959541  0.700909337  0.381783559
     0.343661870  0.782229582  0.878775208
     0.507294562  0.280681039  0.875009473
     0.819399568  0.939299437  0.883174379
     0.993582334  0.439281379  0.872817613
     0.663499017  0.552669988  0.122410339
     0.161408277  0.055155985  0.108170855
     0.502116625  0.719967071  0.122774862
     0.997304928  0.888482615  0.134592803
     0.334644785  0.551737211  0.118884829
     0.660051788  0.225306887  0.125921116
     0.825839903  0.057715936  0.122361487
     0.665178984  0.888132407  0.153218153
     0.498239136  0.386662888  0.127264818
     0.165810421  0.278181696  0.626664325
     0.002793448  0.112424256  0.626082631
     0.669703141  0.445367895  0.622468208
     0.164085917  0.945389380  0.613469554
     0.498755937  0.945908327  0.622726892
     0.337641341  0.445230561  0.622207888
     0.835429427  0.280504250  0.605804100
     0.501007820  0.279688194  0.619810628
     0.502917319  0.608044961  0.654217194
     0.001036693  0.553910147  0.116330567
     0.334396792  0.887171328  0.127109979
     0.992385890  0.222426138  0.120919963
     0.170574356  0.719867707  0.124109506
     0.496780883  0.056751691  0.123747226
     0.835540901  0.720339688  0.127225954
     0.829262976  0.387704021  0.125450979
     0.328703314  0.222153059  0.116899896
     0.167365056  0.388196004  0.124016949
     0.999672912  0.778137442  0.625437805
     0.334866494  0.776778675  0.617762578
     0.834617053  0.611158997  0.630541362
     0.335129205  0.114391290  0.631279621
     0.832889058  0.945254191  0.620028832
     0.666947370  0.777032332  0.626164425
     0.664587815  0.113077843  0.629643085
     0.002785614  0.445335991  0.617151631
     0.168425703  0.611821712  0.629541625
     0.981130810  0.995945922  0.034098852
     0.485751829  0.496908560  0.034990322
     0.825038515  0.170524500  0.037757715
     0.335422709  0.666845802  0.035209604
     0.664423448  0.334748164  0.035947494
     0.180027746  0.827180071  0.036213700
     0.341784028  0.995192602  0.036176732
     0.841783612  0.496260736  0.031845184
     0.159660168  0.174146539  0.031258589
     0.666914510  0.673528721  0.038293039
     0.997766469  0.335306860  0.037142153
     0.497654211  0.832048126  0.043530263
     0.666766065  0.004562344  0.040744032
     0.164246903  0.496482726  0.032580783
     0.497006818  0.170000520  0.034037733
     0.002367520  0.667656980  0.036778478
     0.331409532  0.334281617  0.034869035
     0.838876683  0.834356741  0.048434038
     0.985088775  0.113184374  0.207536652
     0.488361162  0.611096660  0.209266477
     0.830071389  0.277610605  0.209465183
     0.337504181  0.771986048  0.212858383
     0.666322424  0.437288889  0.211075555
     0.162493952  0.937609782  0.209816962
     0.333725914  0.114875243  0.207029735
     0.846105554  0.609001239  0.210369096
     0.164946845  0.275865264  0.208492651
     0.667052777  0.765741344  0.220828786
     0.000016816  0.444613584  0.209057762
     0.485255135  0.949927158  0.218096435
     0.661572809  0.113352625  0.210258761
     0.168269193  0.605490050  0.205982980
     0.490291544  0.274574862  0.211668905
     0.006810386  0.771529687  0.212762288
     0.328395969  0.442180849  0.209536715
     0.832910600  0.955712059  0.225020356
     0.987948249  0.004673753  0.531914154
     0.516036913  0.501825013  0.541397650
     0.835191939  0.159694349  0.536329132
     0.329972645  0.667482431  0.540788510
     0.655910410  0.338541144  0.532110382
     0.164530810  0.828494827  0.534706320
     0.346342595  0.007221377  0.539664245
     0.838074525  0.506179441  0.535158123
     0.169088402  0.168404345  0.538930578
     0.673155251  0.669473323  0.544735682
     0.016974546  0.338504740  0.529550694
     0.503978019  0.823765707  0.529662154
     0.664208330  0.003798271  0.538217244
     0.161460815  0.508420820  0.533668351
     0.499729423  0.167037257  0.537463918
     0.000323352  0.668197559  0.541880224
     0.334520953  0.326114307  0.535258155
     0.832674082  0.833987180  0.538638907
     0.162666967  0.060891078  0.710547131
     0.684964687  0.549755345  0.720450119
     0.009322846  0.221025981  0.708193648
     0.498696951  0.730547144  0.717987097
     0.837835507  0.392399212  0.705220153
     0.343079444  0.886052944  0.706201162
     0.500980451  0.063692913  0.718458667
     0.001731164  0.552678223  0.712837014
     0.335113060  0.223786074  0.713310298
     0.834787571  0.722965118  0.714072581
     0.157083284  0.386677756  0.710336960
     0.665067640  0.890369448  0.708963978
     0.832052657  0.053320048  0.711879272
     0.318651985  0.555316757  0.722259594
     0.658440244  0.222723344  0.708577623
     0.168852002  0.724774132  0.713208262
     0.513291981  0.383648345  0.711157223
     0.989330258  0.888024417  0.711041982

  ion indices of the primitive-cell ions
   primitive index   ion index
                 1           1
                 2           2
                 3           3
                 4           4
                 5           5
                 6           6
                 7           7
                 8           8
                 9           9
                10          10
                11          11
                12          12
                13          13
                14          14
                15          15
                16          16
                17          17
                18          18
                19          19
                20          20
                21          21
                22          22
                23          23
                24          24
                25          25
                26          26
                27          27
                28          28
                29          29
                30          30
                31          31
                32          32
                33          33
                34          34
                35          35
                36          36
                37          37
                38          38
                39          39
                40          40
                41          41
                42          42
                43          43
                44          44
                45          45
                46          46
                47          47
                48          48
                49          49
                50          50
                51          51
                52          52
                53          53
                54          54
                55          55
                56          56
                57          57
                58          58
                59          59
                60          60
                61          61
                62          62
                63          63
                64          64
                65          65
                66          66
                67          67
                68          68
                69          69
                70          70
                71          71
                72          72
                73          73
                74          74
                75          75
                76          76
                77          77
                78          78
                79          79
                80          80
                81          81
                82          82
                83          83
                84          84
                85          85
                86          86
                87          87
                88          88
                89          89
                90          90
                91          91
                92          92
                93          93
                94          94
                95          95
                96          96
                97          97
                98          98
                99          99
               100         100
               101         101
               102         102
               103         103
               104         104
               105         105
               106         106
               107         107
               108         108
               109         109
               110         110
               111         111
               112         112
               113         113
               114         114
               115         115
               116         116

----------------------------------------------------------------------------------------

 
 
 KPOINTS: K-Spacing Value to Generate K-Mesh: 0.04

Automatic generation of k-mesh.
 Grid dimensions read from file:
 generate k-points for:    4    2    1

 Generating k-lattice:

  Cartesian coordinates                     Fractional coordinates (reciprocal lattice)
     0.029153889  0.000003164  0.000038646     0.250000000  0.000000000 -0.000000000
     0.000005388  0.033539886 -0.000198209     0.000000000  0.500000000 -0.000000000
    -0.000197443 -0.000818694  0.089217296     0.000000000  0.000000000  1.000000000

  Length of vectors
     0.029153914  0.033540472  0.089221271

  Shift w.r.t. Gamma in fractional coordinates (k-lattice)
     0.000000000  0.000000000  0.000000000

 
 Subroutine IBZKPT returns following result:
 ===========================================
 
 Found      6 irreducible k-points:
 
 Following reciprocal coordinates:
            Coordinates               Weight
  0.000000  0.000000  0.000000      1.000000
  0.250000  0.000000 -0.000000      2.000000
  0.500000  0.000000  0.000000      1.000000
  0.000000  0.500000  0.000000      1.000000
  0.250000  0.500000 -0.000000      2.000000
  0.500000  0.500000  0.000000      1.000000
 
 Following cartesian coordinates:
            Coordinates               Weight
  0.000000  0.000000  0.000000      1.000000
  0.029154  0.000003  0.000039      2.000000
  0.058308  0.000006  0.000077      1.000000
  0.000005  0.033540 -0.000198      1.000000
  0.029159  0.033543 -0.000160      2.000000
  0.058313  0.033546 -0.000121      1.000000
 


--------------------------------------------------------------------------------------------------------




 Dimension of arrays:
   k-points           NKPTS =      6   k-points in BZ     NKDIM =      6   number of bands    NBANDS=    592
   number of dos      NEDOS =   5001   number of ions     NIONS =    116
   non local maximal  LDIM  =      6   non local SUM 2l+1 LMDIM =     18
   total plane-waves  NPLWV = 552960
   max r-space proj   IRMAX =   6068   max aug-charges    IRDMAX= 119931
   dimension x,y,z NGX =    64 NGY =  108 NGZ =   80
   dimension x,y,z NGXF=   128 NGYF=  224 NGZF=  168
   support grid    NGXF=   256 NGYF=  448 NGZF=  336
   ions per type =               8  18  18  72
   NGX,Y,Z   is equivalent  to a cutoff of  12.41, 12.04, 11.86 a.u.
   NGXF,Y,Z  is equivalent  to a cutoff of  24.82, 24.98, 24.92 a.u.

 SYSTEM =  NFMO_o2                                 
 POSCAR =   Sodio_gutxiago                         

 Startparameter for this run:
   NWRITE =      2    write-flag & timer
   PREC   = accura    normal or accurate (medium, high low for compatibility)
   ISTART =      1    job   : 0-new  1-cont  2-samecut
   ICHARG =      1    charge: 1-file 2-atom 10-const
   ISPIN  =      2    spin polarized calculation?
   LNONCOLLINEAR =      F non collinear calculations
   LSORBIT =      F    spin-orbit coupling
   INIWAV =      1    electr: 0-lowe 1-rand  2-diag
   LASPH  =      T    aspherical Exc in radial PAW
 Electronic Relaxation 1
   ENCUT  =  480.0 eV  35.28 Ry    5.94 a.u.  15.32 26.63 20.02*2*pi/ulx,y,z
   ENINI  =  480.0     initial cutoff
   ENAUG  =  605.4 eV  augmentation charge cutoff
   NELM   =    150;   NELMIN=  2; NELMDL=  0     # of ELM steps 
   EDIFF  = 0.1E-05   stopping-criterion for ELM
   LREAL  =      T    real-space projection
   NLSPLINE    = F    spline interpolate recip. space projectors
   LCOMPAT=      F    compatible to vasp.4.4
   GGA_COMPAT  = T    GGA compatible to vasp.4.4-vasp.4.6
   LMAXPAW     = -100 max onsite density
   LMAXMIX     =    2 max onsite mixed and CHGCAR
   VOSKOWN=      0    Vosko Wilk Nusair interpolation
   ROPT   =   -0.00025  -0.00025  -0.00025  -0.00025
 Ionic relaxation
   EDIFFG = -.1E-01   stopping-criterion for IOM
   NSW    =     15    number of steps for IOM
   NBLOCK =      1;   KBLOCK =     15    inner block; outer block 
   IBRION =      2    ionic relax: 0-MD 1-quasi-New 2-CG
   NFREE  =      1    steps in history (QN), initial steepest desc. (CG)
   ISIF   =      2    stress and relaxation
   IWAVPR =     11    prediction:  0-non 1-charg 2-wave 3-comb
   ISYM   =      2    0-nonsym 1-usesym 2-fastsym
   LCORR  =      T    Harris-Foulkes like correction to forces

   POTIM  = 0.5000    time-step for ionic-motion
   TEIN   =    0.0    initial temperature
   TEBEG  =    0.0;   TEEND  =   0.0 temperature during run
   SMASS  =  -3.00    Nose mass-parameter (am)
   estimated Nose-frequenzy (Omega)   =  0.10E-29 period in steps = 0.13E+47 mass=  -0.168E-26a.u.
   SCALEE = 1.0000    scale energy and forces
   NPACO  =    256;   APACO  = 10.0  distance and # of slots for P.C.
   PSTRESS=    0.0 pullay stress

  Mass of Ions in am
   POMASS =  22.99 55.85 54.94 16.00
  Ionic Valenz
   ZVAL   =   7.00  8.00 13.00  6.00
  Atomic Wigner-Seitz radii
   RWIGS  =  -1.00 -1.00 -1.00 -1.00
  virtual crystal weights 
   VCA    =   1.00  1.00  1.00  1.00
   NELECT =     866.0000    total number of electrons
   NUPDOWN=      -1.0000    fix difference up-down

 DOS related values:
   EMIN   = -10.00;   EMAX   = 10.00  energy-range for DOS
   EFERMI =   0.00;   METHOD = LEGACY      
   ISMEAR =     0;   SIGMA  =   0.05  broadening in eV -4-tet -1-fermi 0-gaus
   EFERMI_NEDOS =   21; number of points for ismear=-14 and -15

 Electronic relaxation 2 (details)
   IALGO  =     38    algorithm
   LDIAG  =      T    sub-space diagonalisation (order eigenvalues)
   LSUBROT=      F    optimize rotation matrix (better conditioning)
   LROBUST=      F    robust break criterion during scf (extrapolated energy error)
   ISEARCH=      0    line search for conjugate gradient (0, 1=use gradient)
   TURBO    =      0    0=normal 1=particle mesh
   IRESTART =      0    0=no restart 2=restart with 2 vectors
   NREBOOT  =      0    no. of reboots
   NMIN     =      0    reboot dimension
   EREF     =   0.00    reference energy to select bands
   IMIX   =      4    mixing-type and parameters
     AMIX     =   0.40;   BMIX     =  1.00
     AMIX_MAG =   1.60;   BMIX_MAG =  1.00
     AMIN     =   0.10
     WC   =   100.;   INIMIX=   1;  MIXPRE=   1;  MAXMIX= -45

 Intra band minimization:
   WEIMIN = 0.0010     energy-eigenvalue tresh-hold
   EBREAK =  0.42E-09  absolut break condition
   DEPER  =   0.30     relativ break condition  

   TIME   =   0.40     timestep for ELM

  volume/ion in A,a.u.               =      12.35        83.36
  Fermi-wavevector in a.u.,A,eV,Ry     =   1.384116  2.615599 26.065720  1.915776
  Thomas-Fermi vector in A             =   2.508650
 
 Write flags
   LWAVE        =      T    write WAVECAR
   LDOWNSAMPLE  =      F    k-point downsampling of WAVECAR
   LCHARG       =      T    write CHGCAR
   LVTOT        =      F    write LOCPOT, total local potential
   LVHAR        =      F    write LOCPOT, Hartree potential only
   WRT_POTENTIAL= false  ! write potential to hdf5 file
   LELF         =      F    write electronic localiz. function (ELF)
   LORBIT       =     11    0 simple, 1 ext, 2 COOP (PROOUT), +10 PAW based schemes


 Python interface
   PLUGINS active      =      F    recompile with -DPLUGINS to activate
 
 Dipole corrections
   LMONO      =      F    monopole corrections only (constant potential shift)
   LDIPOL     =      F    correct potential (dipole corrections)
   IDIPOL     =      0    1-x, 2-y, 3-z, 4-all directions 
   EPSILON    =  1.0000000 bulk dielectric constant
   LVACPOTAV  =      F  vacuum potentials using an averaging scheme for the charge density
   VACPOTFLAT =  0.1000000 required flatness to determine vacuum potential
 
Coulomb truncation method
  LTRUNCATE          =      F  Coulomb kernel truncation to be used

 
 Exchange correlation treatment:
   METAGGA = R2SCAN    functional components
   XC_C    = 1    coefficients multiplying the functional components
   LIBXC   =     F    Libxc                    
   VOSKOWN =     0    Vosko Wilk Nusair interpolation
   LHFCALC =     F    Hartree Fock is set to
   LHFONE  =     F    Hartree Fock one center treatment
   AEXX    =    0.0000 exact exchange contribution

 Parameters of functionals:
   R2SCAN:
     No parameter
 
 Accuracy and mixing parameters for tau-dependent meta-GGA functionals:
   LMAXTAU = 6
   LMIXTAU = F
 
 Van der Waals corrections
   IVDW    =     0    specifies the selected vdW correction

 Linear response parameters
   LEPSILON=     F    determine dielectric tensor
   LRPA    =     F    only Hartree local field effects (RPA)
   LNABLA  =     F    use nabla operator in PAW spheres
   LVEL    =     F    velocity operator in full k-point grid
   CSHIFT  =0.1000    complex shift for real part using Kramers Kronig
   OMEGAMAX=  -1.0    maximum frequency
   DEG_THRESHOLD= 0.2000000E-02 threshold for treating states as degnerate
   RTIME   =   -0.100 relaxation time in fs
  (WPLASMAI=    0.000 imaginary part of plasma frequency in eV, 0.658/RTIME)
   DFIELD  = 0.0000000 0.0000000 0.0000000 field for delta impulse in time
 
  Optional k-point grid parameters
   LKPOINTS_OPT  =     F    use optional k-point grid
   KPOINTS_OPT_MODE=     1    mode for optional k-point grid
 
 Orbital magnetization related:
   ORBITALMAG=     F  switch on orbital magnetization
   LCHIMAG   =     F  perturbation theory with respect to B field
   DQ        =  0.001000  dq finite difference perturbation B field
   LLRAUG    =     F  two centre corrections for induced B field
   LBONE     =     F  B-component reconstruction in AE one-centre
   LVGVCALC  =     T  calculate vGv susceptibility
   LVGVAPPL  =     F  apply vGv susceptibility instead of pGv for G=0

 Random number generation:
   RANDOM_GENERATOR = DEFAULT
   PCG_SEED         = not used


--------------------------------------------------------------------------------------------------------


 conjugate gradient relaxation of ions
 charge density and potential will be updated during run
 spin polarized calculation
 Variant of blocked Davidson
 Davidson routine will perform the subspace rotation
 perform sub-space diagonalisation
    after iterative eigenvector-optimisation
 modified Broyden-mixing scheme, WC =      100.0
 initial mixing is a Kerker type mixing with AMIX =  0.4000 and BMIX =      1.0000
 Hartree-type preconditioning will be used
 using additional bands          159
 real space projection scheme for non local part
 use partial core corrections
 calculate Harris-corrections to forces 
   (improved forces if not selfconsistent)
 use gradient corrections 
 use of overlap-Matrix (Vanderbilt PP)
 Gauss-broadening in eV      SIGMA  =   0.05


--------------------------------------------------------------------------------------------------------


  energy-cutoff  :      480.00
  volume of cell :     1432.93
      direct lattice vectors                 reciprocal lattice vectors
     8.575160388 -0.001265507  0.018965705     0.116615555  0.000012656  0.000154582
    -0.001799258 14.908432609  0.136801774     0.000010776  0.067079771 -0.000396419
    -0.014865732  0.066244775 11.209163907    -0.000197443 -0.000818694  0.089217296

  length of vectors
     8.575181455 14.909060361 11.209369512     0.116615658  0.067080944  0.089221271


 
 old parameters found on file WAVECAR:
  energy-cutoff  :      480.00
  volume of cell :     1432.93
      direct lattice vectors                 reciprocal lattice vectors
     8.575160388 -0.001265507  0.018965705     0.116615555  0.000012656  0.000154582
    -0.001799258 14.908432609  0.136801774     0.000010776  0.067079771 -0.000396419
    -0.014865732  0.066244775 11.209163907    -0.000197443 -0.000818694  0.089217296

  length of vectors

 
 k-points in units of 2pi/SCALE and weight: K-Spacing Value to Generate K-Mesh: 0.04
   0.00000000  0.00000000  0.00000000       0.125
   0.02915389  0.00000316  0.00003865       0.250
   0.05830778  0.00000633  0.00007729       0.125
   0.00000539  0.03353989 -0.00019821       0.125
   0.02915928  0.03354305 -0.00015956       0.250
   0.05831317  0.03354621 -0.00012092       0.125
 
 k-points in reciprocal lattice and weights: K-Spacing Value to Generate K-Mesh: 0.04
   0.00000000  0.00000000  0.00000000       0.125
   0.25000000  0.00000000 -0.00000000       0.250
   0.50000000  0.00000000  0.00000000       0.125
   0.00000000  0.50000000  0.00000000       0.125
   0.25000000  0.50000000 -0.00000000       0.250
   0.50000000  0.50000000  0.00000000       0.125
 
 position of ions in fractional coordinates (direct lattice) 
   0.82848883  0.06380535  0.37520863
   0.00365282  0.56611813  0.37707690
   0.33273715  0.21889170  0.37624197
   0.50395954  0.70090934  0.38178356
   0.34366187  0.78222958  0.87877521
   0.50729456  0.28068104  0.87500947
   0.81939957  0.93929944  0.88317438
   0.99358233  0.43928138  0.87281761
   0.66349902  0.55266999  0.12241034
   0.16140828  0.05515599  0.10817086
   0.50211662  0.71996707  0.12277486
   0.99730493  0.88848261  0.13459280
   0.33464478  0.55173721  0.11888483
   0.66005179  0.22530689  0.12592112
   0.82583990  0.05771594  0.12236149
   0.66517898  0.88813241  0.15321815
   0.49823914  0.38666289  0.12726482
   0.16581042  0.27818170  0.62666433
   0.00279345  0.11242426  0.62608263
   0.66970314  0.44536789  0.62246821
   0.16408592  0.94538938  0.61346955
   0.49875594  0.94590833  0.62272689
   0.33764134  0.44523056  0.62220789
   0.83542943  0.28050425  0.60580410
   0.50100782  0.27968819  0.61981063
   0.50291732  0.60804496  0.65421719
   0.00103669  0.55391015  0.11633057
   0.33439679  0.88717133  0.12710998
   0.99238589  0.22242614  0.12091996
   0.17057436  0.71986771  0.12410951
   0.49678088  0.05675169  0.12374723
   0.83554090  0.72033969  0.12722595
   0.82926298  0.38770402  0.12545098
   0.32870331  0.22215306  0.11689990
   0.16736506  0.38819600  0.12401695
   0.99967291  0.77813744  0.62543781
   0.33486649  0.77677868  0.61776258
   0.83461705  0.61115900  0.63054136
   0.33512920  0.11439129  0.63127962
   0.83288906  0.94525419  0.62002883
   0.66694737  0.77703233  0.62616443
   0.66458781  0.11307784  0.62964308
   0.00278561  0.44533599  0.61715163
   0.16842570  0.61182171  0.62954162
   0.98113081  0.99594592  0.03409885
   0.48575183  0.49690856  0.03499032
   0.82503851  0.17052450  0.03775772
   0.33542271  0.66684580  0.03520960
   0.66442345  0.33474816  0.03594749
   0.18002775  0.82718007  0.03621370
   0.34178403  0.99519260  0.03617673
   0.84178361  0.49626074  0.03184518
   0.15966017  0.17414654  0.03125859
   0.66691451  0.67352872  0.03829304
   0.99776647  0.33530686  0.03714215
   0.49765421  0.83204813  0.04353026
   0.66676607  0.00456234  0.04074403
   0.16424690  0.49648273  0.03258078
   0.49700682  0.17000052  0.03403773
   0.00236752  0.66765698  0.03677848
   0.33140953  0.33428162  0.03486903
   0.83887668  0.83435674  0.04843404
   0.98508877  0.11318437  0.20753665
   0.48836116  0.61109666  0.20926648
   0.83007139  0.27761060  0.20946518
   0.33750418  0.77198605  0.21285838
   0.66632242  0.43728889  0.21107556
   0.16249395  0.93760978  0.20981696
   0.33372591  0.11487524  0.20702974
   0.84610555  0.60900124  0.21036910
   0.16494685  0.27586526  0.20849265
   0.66705278  0.76574134  0.22082879
   0.00001682  0.44461358  0.20905776
   0.48525513  0.94992716  0.21809644
   0.66157281  0.11335263  0.21025876
   0.16826919  0.60549005  0.20598298
   0.49029154  0.27457486  0.21166890
   0.00681039  0.77152969  0.21276229
   0.32839597  0.44218085  0.20953671
   0.83291060  0.95571206  0.22502036
   0.98794825  0.00467375  0.53191415
   0.51603691  0.50182501  0.54139765
   0.83519194  0.15969435  0.53632913
   0.32997265  0.66748243  0.54078851
   0.65591041  0.33854114  0.53211038
   0.16453081  0.82849483  0.53470632
   0.34634260  0.00722138  0.53966424
   0.83807452  0.50617944  0.53515812
   0.16908840  0.16840435  0.53893058
   0.67315525  0.66947332  0.54473568
   0.01697455  0.33850474  0.52955069
   0.50397802  0.82376571  0.52966215
   0.66420833  0.00379827  0.53821724
   0.16146081  0.50842082  0.53366835
   0.49972942  0.16703726  0.53746392
   0.00032335  0.66819756  0.54188022
   0.33452095  0.32611431  0.53525815
   0.83267408  0.83398718  0.53863891
   0.16266697  0.06089108  0.71054713
   0.68496469  0.54975535  0.72045012
   0.00932285  0.22102598  0.70819365
   0.49869695  0.73054714  0.71798710
   0.83783551  0.39239921  0.70522015
   0.34307944  0.88605294  0.70620116
   0.50098045  0.06369291  0.71845867
   0.00173116  0.55267822  0.71283701
   0.33511306  0.22378607  0.71331030
   0.83478757  0.72296512  0.71407258
   0.15708328  0.38667776  0.71033696
   0.66506764  0.89036945  0.70896398
   0.83205266  0.05332005  0.71187927
   0.31865199  0.55531676  0.72225959
   0.65844024  0.22272334  0.70857762
   0.16885200  0.72477413  0.71320826
   0.51329198  0.38364835  0.71115722
   0.98933026  0.88802442  0.71104198
 
 position of ions in cartesian coordinates  (Angst):
   7.09873208  0.97504489  4.23021664
   0.02469937  8.46490868  4.30423200
   2.84728752  3.28783519  4.25361327
   4.31459729 10.47411301  4.38491808
   2.93248459 11.71959637  9.96386353
   4.33661956  4.24183717  9.85614347
   7.01166364 14.06095109 10.04368469
   8.50636242  6.60555906  9.86249415
   5.68679637  8.24671265  1.46030751
   1.38239458  0.82925078  1.22311150
   4.30261004 10.74107833  1.48421932
   8.54845028 13.25353716  1.64913338
   2.86687267  8.23298903  1.41442494
   5.65777265  3.36647885  1.45481116
   7.07978679  0.86751485  1.39512824
   5.70014080 13.24997026  1.85156107
   4.26989292  5.77233772  1.48887783
   1.41203461  4.18855647  7.06558360
   0.01444481  1.71754062  7.03329565
   5.73275707  6.68012500  7.05097669
   1.39624238 14.13470536  7.00892373
   4.26595293 14.14263178  7.11910900
   2.88527799  6.67848054  7.04174213
   7.15443091  4.22095283  6.84477544
   4.28650524  4.21013777  6.99532273
   4.30177722  9.10769936  7.42594757
   0.00616384  8.26563708  1.37976394
   2.86402029 13.23433115  1.55250527
   8.50767041  3.32277953  1.40466127
   1.45956225 10.74010494  1.49287804
   4.25803404  0.85364769  1.40428847
   7.16170986 10.74650637  1.54048694
   7.10850052  5.78732031  1.47496674
   2.81654613  3.31928194  1.34697512
   1.43264013  5.79539764  1.44640640
   8.56165790 11.64097651  7.13604496
   2.86095277 11.62105230  7.03721767
   7.14650200  9.15213657  7.16727821
   2.86419643  1.74678971  7.09812163
   7.13123932 14.13227805  7.09511359
   5.70847420 11.62497025  7.13772821
   5.68938354  1.72668293  7.08584617
   0.01391140  6.68014115  6.97872937
   1.43381799  9.16279347  7.14352786
   8.41105519 14.84900991  0.53707463
   4.16398562  7.40983098  0.46940285
   7.07396948  2.54371018  0.46220791
   2.87458028  9.94353367  0.49225743
   5.69640095  4.99211094  0.46133676
   1.54174014 12.33412949  0.52249935
   2.92852445 14.83872584  0.54813721
   7.21706318  7.39951404  0.44081226
   1.36833353  2.59812061  0.37723427
   5.71711778 10.04295028  0.53402138
   8.55485206  5.00009751  0.48112640
   4.26532050 12.40678728  0.61120188
   5.71701205  0.06987268  0.46997636
   1.40706590  7.40372972  0.43623812
   4.26110131  2.53606715  0.41421698
   0.01855384  9.95615247  0.50363755
   2.84077008  4.98550545  0.44286846
   7.19128087 12.44109814  0.67295644
   8.44400541  1.69990319  2.36047908
   4.18356487  9.12373816  2.43856346
   7.11438195  4.15156451  2.40165008
   2.88959919 11.52277562  2.49797457
   5.70989707  6.53243135  2.43843966
   1.38860562 13.99198589  2.48322121
   2.85846890  1.72590213  2.34267472
   7.25126779  9.09211904  2.45742111
   1.41084990  4.12632151  2.37789549
   5.71542400 11.42978782  2.59271195
  -0.00376357  6.64234062  2.40418697
   4.15618928 14.17575868  2.58383362
   5.66976335  1.70300130  2.38487895
   1.43878379  9.04033995  2.39492044
   4.20068798  4.10688232  2.41949250
   0.05384911 11.51638412  2.49056315
   2.81213759  6.60568851  2.41545077
   7.13727732 14.26202120  2.66882989
   8.46389899  0.10366460  5.98168945
   4.41614811  7.51663611  6.14705255
   7.15364457  2.41526450  6.04948763
   2.82032816  9.98652367  6.15935799
   5.61601764  5.08153731  6.02326532
   1.40143861 12.38677258  6.11007078
   2.96190781  0.14297105  6.05674150
   7.17775720  7.58073293  6.08381603
   1.44164557  2.54613219  6.06720608
   5.76311179 10.01603193  6.21038355
   0.13707824  5.08163359  5.98245051
   4.31233637 12.31550510  6.05932080
   5.68768514  0.09143979  6.04608209
   1.37570423  7.61490594  6.05459110
   4.27696961  2.52523546  6.05684987
  -0.00648491  9.99767460  6.16544099
   2.86002706  4.89688789  6.05075383
   7.13080598 12.46806993  6.16757497
   1.38422297  0.95465471  7.97605436
   5.86198288  8.24284975  8.16384182
   0.06901940  3.34205327  7.96867224
   4.26441849 10.93824466  8.15743333
   7.17338421  5.89571407  7.97449933
   2.92986882 13.25600857  8.04364494
   4.28519271  0.99652164  8.07153571
   0.00325375  8.28678558  8.06594712
   2.86264171  3.38312860  8.03258204
   7.14652130 10.82452388  8.11889185
   1.33575894  5.81161660  8.01816081
   5.69092041 13.32013643  8.08131103
   7.12430644  0.84102365  8.00264619
   2.72075580  8.32634511  8.17793795
   5.63529643  3.36656227  7.98551945
   1.43602658 10.85227894  8.09682110
   4.39029891  5.76605638  8.03369659
   8.47149770 13.28490299  8.11043278
 


--------------------------------------------------------------------------------------------------------


 k-point     1 :   0.0000 0.0000 0.0000  plane waves:   34219
 k-point     2 :   0.2500 0.0000-0.0000  plane waves:   34179
 k-point     3 :   0.5000 0.0000 0.0000  plane waves:   34246
 k-point     4 :   0.0000 0.5000 0.0000  plane waves:   34222
 k-point     5 :   0.2500 0.5000-0.0000  plane waves:   34200
 k-point     6 :   0.5000 0.5000 0.0000  plane waves:   34228

 maximum and minimum number of plane-waves per node :      4308     4249

 maximum number of plane-waves:     34246
 maximum index in each direction: 
   IXMAX=   15   IYMAX=   26   IZMAX=   20
   IXMIN=  -15   IYMIN=  -27   IZMIN=  -20


 real space projection operators:
  total allocation   :      43663.28 KBytes
  max/ min on nodes  :       5472.23       5447.28


 parallel 3D FFT for wavefunctions:
    minimum data exchange during FFTs selected (reduces bandwidth)
 parallel 3D FFT for charge:
    minimum data exchange during FFTs selected (reduces bandwidth)


 total amount of memory used by VASP MPI-rank0   143958. kBytes
=======================================================================

   base                                    :      30000. kBytes
   nonlr-proj                              :      18672. kBytes
   fftplans                                :      13014. kBytes
   grid                                    :      18496. kBytes
   one-center                              :        466. kBytes
   wavefun                                 :      63310. kBytes
 
     INWAV:  cpu time     20.7681: real time     25.7304
 Broyden mixing: mesh for mixing (old mesh)
   NGX = 31   NGY = 53   NGZ = 41
  (NGX  =128   NGY  =224   NGZ  =168)
  gives a total of  67363 points

 initial charge density was supplied:
 number of electron     866.0000014 magnetization     114.0000152
 keeping initial charge density in first step


--------------------------------------------------------------------------------------------------------


 Maximum index for non-local projection operator          778
 Maximum index for augmentation-charges         2892 (set IRDMAX)


--------------------------------------------------------------------------------------------------------


 First call to EWALD:  gamma=   0.157
 Maximum number of real-space cells   3x   2x   3
 Maximum number of reciprocal cells   2x   3x   3

    FEWALD:  cpu time      0.0075: real time      0.0105


--------------------------------------- Ionic step        1  -------------------------------------------




--------------------------------------- Iteration      1(   1)  ---------------------------------------


    POTLOK:  cpu time      0.1904: real time      0.2016
    SETDIJ:  cpu time      0.4023: real time      0.4043
     EDDAV:  cpu time     35.1922: real time     35.5018
       DOS:  cpu time      0.0077: real time      0.0117
    CHARGE:  cpu time      1.7852: real time      1.7956
    MIXING:  cpu time      0.0095: real time      0.0114
    --------------------------------------------
      LOOP:  cpu time     37.5873: real time     37.9265

 eigenvalue-minimisations  : 17480
 total energy-change (2. order) :-0.1411306E+04  (-0.5477939E+01)
 number of electron     866.0000014 magnetization     114.1827822
 augmentation part      279.5924563 magnetization      81.0707113

 Broyden mixing:
  rms(total) = 0.34646E+01    rms(broyden)= 0.34636E+01
  rms(prec ) = 0.38627E+01
  weight for this iteration     100.00

 Free energy of the ion-electron system (eV)
  ---------------------------------------------------
  alpha Z        PSCENC =      3167.21027430
  Ewald energy   TEWEN  =    -41569.57177412
  -Hartree energ DENC   =    -39023.00033258
  -exchange      EXHF   =         0.00000000
  -V(xc)+E(xc)   XCENC  =      4305.84830339
  PAW double counting   =     95016.70091331   -97467.19163235
  entropy T*S    EENTRO =        -0.06337141
  eigenvalues    EBANDS =    -10251.27925211
  atomic energy  EATOM  =     84410.04120975
  Solvation  Ediel_sol  =         0.00000000
  ---------------------------------------------------
  free energy    TOTEN  =     -1411.30566184 eV

  energy without entropy =    -1411.24229043  energy(sigma->0) =    -1411.27397614


--------------------------------------------------------------------------------------------------------




--------------------------------------- Iteration      1(   2)  ---------------------------------------


    POTLOK:  cpu time      0.1916: real time      0.1965
    SETDIJ:  cpu time      0.4037: real time      0.4057
     EDDAV:  cpu time     37.4046: real time     37.6958
       DOS:  cpu time      0.0084: real time      0.0084
    CHARGE:  cpu time      1.7994: real time      1.8102
    MIXING:  cpu time      0.0096: real time      0.0111
    --------------------------------------------
      LOOP:  cpu time     39.8173: real time     40.1277

 eigenvalue-minimisations  : 18992
 total energy-change (2. order) : 0.1565205E+03  (-0.1501490E+02)
 number of electron     866.0000014 magnetization     113.6134229
 augmentation part      284.2575326 magnetization      86.6013401

 Broyden mixing:
  rms(total) = 0.12598E+02    rms(broyden)= 0.12597E+02
  rms(prec ) = 0.14332E+02
  weight for this iteration     100.00

 eigenvalues of (default mixing * dielectric matrix)
  average eigenvalue GAMMA=   0.1811
  0.1811

 Free energy of the ion-electron system (eV)
  ---------------------------------------------------
  alpha Z        PSCENC =      3167.21027430
  Ewald energy   TEWEN  =    -41569.57177412
  -Hartree energ DENC   =    -38890.03353281
  -exchange      EXHF   =         0.00000000
  -V(xc)+E(xc)   XCENC  =      4381.04628571
  PAW double counting   =     95154.79254395   -97587.27313444
  entropy T*S    EENTRO =        -0.06261408
  eigenvalues    EBANDS =    -10320.93444751
  atomic energy  EATOM  =     84410.04120975
  Solvation  Ediel_sol  =         0.00000000
  ---------------------------------------------------
  free energy    TOTEN  =     -1254.78518926 eV

  energy without entropy =    -1254.72257518  energy(sigma->0) =    -1254.75388222


--------------------------------------------------------------------------------------------------------




--------------------------------------- Iteration      1(   3)  ---------------------------------------


    POTLOK:  cpu time      0.2055: real time      0.2080
    SETDIJ:  cpu time      0.4003: real time      0.4021
     EDDAV:  cpu time     37.0519: real time     37.3396
       DOS:  cpu time      0.0083: real time      0.0083
    CHARGE:  cpu time      1.8018: real time      1.8123
    MIXING:  cpu time      0.0096: real time      0.0096
    --------------------------------------------
      LOOP:  cpu time     39.4773: real time     39.7800

 eigenvalue-minimisations  : 18744
 total energy-change (2. order) : 0.6078635E+02  (-0.6341202E+01)
 number of electron     866.0000014 magnetization     113.2675740
 augmentation part      283.0515822 magnetization      84.1538146

 Broyden mixing:
  rms(total) = 0.57621E+01    rms(broyden)= 0.57613E+01
  rms(prec ) = 0.67361E+01
  weight for this iteration     100.00

 eigenvalues of (default mixing * dielectric matrix)
  average eigenvalue GAMMA=   0.2245
  0.2841  0.1649

 Free energy of the ion-electron system (eV)
  ---------------------------------------------------
  alpha Z        PSCENC =      3167.21027430
  Ewald energy   TEWEN  =    -41569.57177412
  -Hartree energ DENC   =    -38891.23278697
  -exchange      EXHF   =         0.00000000
  -V(xc)+E(xc)   XCENC  =      4381.99908193
  PAW double counting   =     95163.65408784   -97600.01289337
  entropy T*S    EENTRO =        -0.03241603
  eigenvalues    EBANDS =    -10256.05361862
  atomic energy  EATOM  =     84410.04120975
  Solvation  Ediel_sol  =         0.00000000
  ---------------------------------------------------
  free energy    TOTEN  =     -1193.99883530 eV

  energy without entropy =    -1193.96641927  energy(sigma->0) =    -1193.98262728


--------------------------------------------------------------------------------------------------------




--------------------------------------- Iteration      1(   4)  ---------------------------------------


    POTLOK:  cpu time      0.1937: real time      0.2004
    SETDIJ:  cpu time      0.4028: real time      0.4048
     EDDAV:  cpu time     37.2390: real time     37.5278
       DOS:  cpu time      0.0071: real time      0.0071
    CHARGE:  cpu time      1.8022: real time      1.8123
    MIXING:  cpu time      0.0096: real time      0.0096
    --------------------------------------------
      LOOP:  cpu time     39.6544: real time     39.9620

 eigenvalue-minimisations  : 18848
 total energy-change (2. order) : 0.6772751E+01  (-0.3160329E+01)
 number of electron     866.0000014 magnetization     113.1404001
 augmentation part      283.8635755 magnetization      81.9707300

 Broyden mixing:
  rms(total) = 0.49782E+01    rms(broyden)= 0.49770E+01
  rms(prec ) = 0.57003E+01
  weight for this iteration     100.00

 eigenvalues of (default mixing * dielectric matrix)
  average eigenvalue GAMMA=   0.2230
  0.2689  0.2689  0.1313

 Free energy of the ion-electron system (eV)
  ---------------------------------------------------
  alpha Z        PSCENC =      3167.21027430
  Ewald energy   TEWEN  =    -41569.57177412
  -Hartree energ DENC   =    -38900.10764853
  -exchange      EXHF   =         0.00000000
  -V(xc)+E(xc)   XCENC  =      4385.88973526
  PAW double counting   =     95120.32721571   -97555.87668682
  entropy T*S    EENTRO =        -0.01750406
  eigenvalues    EBANDS =    -10245.12090609
  atomic energy  EATOM  =     84410.04120975
  Solvation  Ediel_sol  =         0.00000000
  ---------------------------------------------------
  free energy    TOTEN  =     -1187.22608461 eV

  energy without entropy =    -1187.20858055  energy(sigma->0) =    -1187.21733258


--------------------------------------------------------------------------------------------------------




--------------------------------------- Iteration      1(   5)  ---------------------------------------


    POTLOK:  cpu time      0.1916: real time      0.1941
    SETDIJ:  cpu time      0.4056: real time      0.4079
     EDDAV:  cpu time     36.4051: real time     36.6848
       DOS:  cpu time      0.0075: real time      0.0075
    CHARGE:  cpu time      1.8242: real time      1.8349
    MIXING:  cpu time      0.0097: real time      0.0097
    --------------------------------------------
      LOOP:  cpu time     38.8438: real time     39.1390

 eigenvalue-minimisations  : 18256
 total energy-change (2. order) : 0.6268002E+01  (-0.1391820E+01)
 number of electron     866.0000014 magnetization     113.0222365
 augmentation part      284.4758108 magnetization      82.4058097

 Broyden mixing:
  rms(total) = 0.29649E+01    rms(broyden)= 0.29640E+01
  rms(prec ) = 0.33020E+01
  weight for this iteration     100.00

 eigenvalues of (default mixing * dielectric matrix)
  average eigenvalue GAMMA=   0.2245
  0.3087  0.3087  0.1665  0.1143

 Free energy of the ion-electron system (eV)
  ---------------------------------------------------
  alpha Z        PSCENC =      3167.21027430
  Ewald energy   TEWEN  =    -41569.57177412
  -Hartree energ DENC   =    -38918.00054719
  -exchange      EXHF   =         0.00000000
  -V(xc)+E(xc)   XCENC  =      4389.29154853
  PAW double counting   =     95066.41844021   -97502.04491824
  entropy T*S    EENTRO =        -0.01955056
  eigenvalues    EBANDS =    -10224.28276491
  atomic energy  EATOM  =     84410.04120975
  Solvation  Ediel_sol  =         0.00000000
  ---------------------------------------------------
  free energy    TOTEN  =     -1180.95808224 eV

  energy without entropy =    -1180.93853168  energy(sigma->0) =    -1180.94830696


--------------------------------------------------------------------------------------------------------




--------------------------------------- Iteration      1(   6)  ---------------------------------------


    POTLOK:  cpu time      0.1920: real time      0.1981
[...]
      4.25803      0.85365      1.40429         0.000031      0.003648     -0.000146
      7.16171     10.74651      1.54049        -0.000963     -0.002092     -0.000145
      7.10850      5.78732      1.47497        -0.001903     -0.001772      0.000433
      2.81655      3.31928      1.34698         0.001147      0.002167     -0.000597
      1.43264      5.79540      1.44641         0.000280     -0.000198      0.000418
      8.56166     11.64098      7.13604         0.000494     -0.002020     -0.000548
      2.86095     11.62105      7.03722         0.000701     -0.002957     -0.000249
      7.14650      9.15214      7.16728        -0.000363     -0.002963      0.000211
      2.86420      1.74679      7.09812         0.000701      0.002094     -0.001463
      7.13124     14.13228      7.09511         0.001608     -0.000753     -0.001508
      5.70847     11.62497      7.13773         0.000543     -0.002692     -0.000691
      5.68938      1.72668      7.08585         0.000880      0.002766     -0.001694
      0.01391      6.68014      6.97873        -0.002049      0.001042      0.001148
      1.43382      9.16279      7.14353         0.000480     -0.001675      0.000320
      8.41106     14.84901      0.53707        -0.000384     -0.000474      0.000177
      4.16399      7.40983      0.46940        -0.000310      0.001736      0.000538
      7.07397      2.54371      0.46221        -0.000208     -0.001177     -0.000743
      2.87458      9.94353      0.49226        -0.001075      0.000382      0.000465
      5.69640      4.99211      0.46134        -0.000504     -0.000042     -0.000049
      1.54174     12.33413      0.52250        -0.000108      0.000047     -0.001137
      2.92852     14.83873      0.54814        -0.001175     -0.001231     -0.001006
      7.21706      7.39951      0.44081         0.000366      0.001185      0.000865
      1.36833      2.59812      0.37723        -0.000317     -0.001802     -0.001389
      5.71712     10.04295      0.53402        -0.000586      0.000214      0.000735
      8.55485      5.00010      0.48113        -0.000210      0.000070     -0.000705
      4.26532     12.40679      0.61120        -0.001486     -0.000766      0.000216
      5.71701      0.06987      0.46998        -0.000856     -0.000865     -0.000743
      1.40707      7.40373      0.43624        -0.000137      0.001604      0.001423
      4.26110      2.53607      0.41422        -0.001129     -0.001256     -0.000550
      0.01855      9.95615      0.50364        -0.000849      0.000510      0.000774
      2.84077      4.98551      0.44287        -0.001169     -0.000071     -0.000231
      7.19128     12.44110      0.67296        -0.001008      0.000559     -0.001456
      8.44401      1.69990      2.36048        -0.000376     -0.000639     -0.000143
      4.18356      9.12374      2.43856        -0.000085      0.002059      0.001061
      7.11438      4.15156      2.40165         0.000162     -0.000459     -0.000982
      2.88960     11.52278      2.49797        -0.001832      0.001411      0.001127
      5.70990      6.53243      2.43844        -0.000317      0.000140     -0.000040
      1.38861     13.99199      2.48322        -0.000447     -0.000342      0.000121
      2.85847      1.72590      2.34267        -0.000444     -0.001119      0.000248
      7.25127      9.09212      2.45742        -0.000554      0.001653      0.001548
      1.41085      4.12632      2.37790        -0.000501     -0.000786     -0.000326
      5.71542     11.42979      2.59271        -0.000587      0.000490      0.000821
     -0.00376      6.64234      2.40419        -0.000584     -0.000025      0.000573
      4.15619     14.17576      2.58383        -0.001364     -0.000948      0.000080
      5.66976      1.70300      2.38488        -0.000545     -0.001146     -0.000239
      1.43878      9.04034      2.39492        -0.000494      0.001250      0.001759
      4.20069      4.10688      2.41949        -0.000698     -0.000344     -0.001017
      0.05385     11.51638      2.49056        -0.000729      0.001618      0.000036
      2.81214      6.60569      2.41545        -0.001214      0.000191      0.001583
      7.13728     14.26202      2.66883        -0.001076     -0.000359      0.000178
      8.46390      0.10366      5.98169         0.000539     -0.000426     -0.001084
      4.41615      7.51664      6.14705        -0.000301     -0.000987      0.000431
      7.15364      2.41526      6.04949        -0.000250     -0.000169     -0.001221
      2.82033      9.98652      6.15936         0.000587      0.001097      0.000768
      5.61602      5.08154      6.02327         0.001480     -0.000880      0.001656
      1.40144     12.38677      6.11007         0.000839      0.000235     -0.000442
      2.96191      0.14297      6.05674         0.000872     -0.000810     -0.001836
      7.17776      7.58073      6.08382         0.000831     -0.000908      0.001601
      1.44165      2.54613      6.06721         0.000404     -0.000161     -0.000570
      5.76311     10.01603      6.21038         0.000708      0.001453      0.000066
      0.13708      5.08163      5.98245         0.001671     -0.001149      0.001019
      4.31234     12.31551      6.05932         0.000092      0.000113     -0.000145
      5.68769      0.09144      6.04608         0.000142     -0.000714     -0.001272
      1.37570      7.61491      6.05459         0.000312     -0.000485      0.001082
      4.27697      2.52524      6.05685         0.000663     -0.001048     -0.000397
     -0.00648      9.99767      6.16544         0.000645      0.000696     -0.000149
      2.86003      4.89689      6.05075         0.001561      0.000723      0.000058
      7.13081     12.46807      6.16757         0.000416      0.000340     -0.000643
      1.38422      0.95465      7.97605         0.001226     -0.000555     -0.001113
      5.86198      8.24285      8.16384         0.000089      0.001383     -0.000279
      0.06902      3.34205      7.96867        -0.000174     -0.001689      0.000531
      4.26442     10.93824      8.15743         0.001123      0.001208     -0.000208
      7.17338      5.89571      7.97450         0.000942     -0.000278      0.000855
      2.92987     13.25601      8.04364         0.000510      0.001078      0.000288
      4.28519      0.99652      8.07154         0.000455     -0.000476     -0.000678
      0.00325      8.28679      8.06595         0.000932      0.000581     -0.000443
      2.86264      3.38313      8.03258        -0.000832     -0.001420     -0.001956
      7.14652     10.82452      8.11889         0.000735      0.001132     -0.000557
      1.33576      5.81162      8.01816         0.000790     -0.002024      0.000814
      5.69092     13.32014      8.08131         0.000613      0.000904     -0.000265
      7.12431      0.84102      8.00265         0.001179     -0.000109     -0.001583
      2.72076      8.32635      8.17794         0.000320      0.000194     -0.000179
      5.63530      3.36656      7.98552         0.000173     -0.001682     -0.000641
      1.43603     10.85228      8.09682         0.000547      0.000806     -0.000224
      4.39030      5.76606      8.03370         0.000273     -0.001153      0.000095
      8.47150     13.28490      8.11043         0.000429      0.000756     -0.001046
 -----------------------------------------------------------------------------------
    total drift:                               -0.068663      0.040811      0.075844


--------------------------------------------------------------------------------------------------------



  FREE ENERGIE OF THE ION-ELECTRON SYSTEM (eV)
  ---------------------------------------------------
  free  energy   TOTEN  =     -1183.34639840 eV

  energy  without entropy=    -1183.34639839  energy(sigma->0) =    -1183.34639839
 


--------------------------------------------------------------------------------------------------------


    POTLOK:  cpu time      0.5938: real time      0.5970


--------------------------------------------------------------------------------------------------------




--------------------------------------------------------------------------------------------------------


  
 reached required accuracy - stopping structural energy minimisation
 writing wavefunctions
     LOOP+:  cpu time   1611.7980: real time   1625.4854
    4ORBIT:  cpu time      0.0000: real time      0.0000



 total charge

# of ion       s       p       d       tot
------------------------------------------
    1        0.038   5.987   0.000   6.026
    2        0.034   5.982   0.000   6.017
    3        0.033   5.981   0.000   6.014
    4        0.033   5.982   0.000   6.015
    5        0.036   5.984   0.000   6.019
    6        0.033   5.982   0.000   6.015
    7        0.032   5.980   0.000   6.012
    8        0.035   5.984   0.000   6.019
    9        0.381   0.575   5.845   6.800
   10        0.379   0.567   5.835   6.781
   11        0.472   0.803   6.098   7.373
   12        0.446   0.729   5.895   7.070
   13        0.458   0.768   6.097   7.323
   14        0.442   0.738   6.137   7.317
   15        0.472   0.810   6.103   7.385
   16        0.383   0.573   5.859   6.815
   17        0.434   0.716   6.145   7.295
   18        0.466   0.792   6.092   7.350
   19        0.458   0.775   6.079   7.312
   20        0.463   0.789   6.092   7.344
   21        0.382   0.577   5.838   6.797
   22        0.446   0.730   5.890   7.066
   23        0.377   0.567   5.838   6.781
   24        0.382   0.576   5.852   6.810
   25        0.476   0.810   6.115   7.401
   26        0.387   0.583   5.870   6.840
   27        0.389   6.478   4.881  11.748
   28        0.382   6.465   4.862  11.709
   29        0.382   6.462   4.858  11.702
   30        0.384   6.469   4.864  11.717
   31        0.377   6.455   4.844  11.676
   32        0.378   6.458   4.848  11.685
   33        0.387   6.469   4.871  11.726
   34        0.394   6.483   4.889  11.767
   35        0.385   6.466   4.861  11.713
   36        0.380   6.463   4.852  11.695
   37        0.389   6.478   4.883  11.750
   38        0.386   6.471   4.869  11.726
   39        0.385   6.468   4.869  11.723
   40        0.388   6.474   4.877  11.739
   41        0.385   6.470   4.867  11.722
   42        0.383   6.465   4.863  11.711
   43        0.391   6.479   4.884  11.753
   44        0.385   6.472   4.869  11.727
   45        1.583   3.448   0.000   5.031
   46        1.591   3.424   0.000   5.015
   47        1.590   3.421   0.000   5.011
   48        1.585   3.437   0.000   5.022
   49        1.584   3.446   0.000   5.030
   50        1.586   3.456   0.000   5.042
   51        1.586   3.451   0.000   5.037
   52        1.582   3.473   0.000   5.055
   53        1.586   3.456   0.000   5.043
   54        1.589   3.437   0.000   5.026
   55        1.583   3.478   0.000   5.061
   56        1.585   3.455   0.000   5.040
   57        1.586   3.451   0.000   5.037
   58        1.585   3.458   0.000   5.043
   59        1.582   3.457   0.000   5.039
   60        1.588   3.442   0.000   5.030
   61        1.583   3.463   0.000   5.046
   62        1.585   3.458   0.000   5.044
   63        1.585   3.459   0.000   5.044
   64        1.585   3.449   0.000   5.033
   65        1.589   3.443   0.000   5.032
   66        1.585   3.446   0.000   5.031
   67        1.587   3.447   0.000   5.034
   68        1.591   3.436   0.000   5.027
   69        1.584   3.465   0.000   5.049
   70        1.583   3.475   0.000   5.057
   71        1.583   3.464   0.000   5.047
   72        1.582   3.453   0.000   5.035
   73        1.584   3.454   0.000   5.039
   74        1.586   3.453   0.000   5.039
   75        1.585   3.447   0.000   5.031
   76        1.584   3.467   0.000   5.051
   77        1.584   3.448   0.000   5.032
   78        1.589   3.440   0.000   5.029
   79        1.590   3.422   0.000   5.012
   80        1.583   3.450   0.000   5.033
   81        1.583   3.464   0.000   5.048
   82        1.589   3.436   0.000   5.025
   83        1.582   3.478   0.000   5.060
   84        1.584   3.467   0.000   5.051
   85        1.589   3.424   0.000   5.013
   86        1.587   3.456   0.000   5.042
   87        1.590   3.444   0.000   5.034
   88        1.584   3.454   0.000   5.037
   89        1.584   3.442   0.000   5.026
   90        1.585   3.468   0.000   5.053
   91        1.587   3.437   0.000   5.024
   92        1.585   3.447   0.000   5.033
   93        1.585   3.461   0.000   5.046
   94        1.583   3.472   0.000   5.055
   95        1.584   3.455   0.000   5.039
   96        1.584   3.477   0.000   5.061
   97        1.586   3.450   0.000   5.037
   98        1.588   3.446   0.000   5.034
   99        1.590   3.435   0.000   5.025
  100        1.588   3.447   0.000   5.035
  101        1.593   3.413   0.000   5.005
  102        1.582   3.480   0.000   5.061
  103        1.585   3.466   0.000   5.050
  104        1.585   3.459   0.000   5.044
  105        1.590   3.435   0.000   5.026
  106        1.584   3.468   0.000   5.053
  107        1.586   3.439   0.000   5.025
  108        1.588   3.446   0.000   5.034
  109        1.584   3.456   0.000   5.040
  110        1.584   3.463   0.000   5.047
  111        1.584   3.441   0.000   5.025
  112        1.585   3.460   0.000   5.045
  113        1.586   3.453   0.000   5.039
  114        1.583   3.458   0.000   5.041
  115        1.585   3.439   0.000   5.025
  116        1.583   3.460   0.000   5.043
--------------------------------------------------
tot        129.071 425.312 195.290 749.674



 magnetization (x)

# of ion       s       p       d       tot
------------------------------------------
    1        0.003   0.002   0.000   0.005
    2        0.002   0.001   0.000   0.003
    3        0.002   0.001   0.000   0.002
    4        0.002   0.001   0.000   0.003
    5        0.003   0.002   0.000   0.004
    6        0.001   0.000   0.000   0.001
    7        0.002   0.001   0.000   0.003
    8        0.002   0.001   0.000   0.003
    9        0.035   0.026   4.064   4.126
   10        0.036   0.029   4.069   4.135
   11        0.026   0.030   1.896   1.952
   12        0.033   0.031   3.380   3.444
   13        0.025   0.029   1.816   1.869
   14        0.027   0.027   1.571   1.626
   15        0.026   0.032   1.860   1.918
   16        0.035   0.032   4.032   4.098
   17        0.027   0.029   1.476   1.533
   18        0.026   0.031   1.883   1.940
   19        0.027   0.030   1.889   1.947
   20        0.025   0.028   1.850   1.903
   21        0.036   0.027   4.070   4.133
   22        0.040   0.030   3.393   3.463
   23        0.035   0.025   4.069   4.129
   24        0.036   0.031   4.055   4.122
   25        0.025   0.031   1.874   1.929
   26        0.036   0.036   4.032   4.104
   27        0.025   0.037   2.827   2.889
   28        0.025   0.037   2.830   2.892
   29        0.024   0.036   2.835   2.895
   30        0.025   0.037   2.809   2.870
   31        0.024   0.035   2.838   2.897
   32        0.025   0.036   2.842   2.903
   33        0.022   0.034   2.809   2.865
   34        0.022   0.036   2.809   2.866
   35        0.023   0.034   2.829   2.886
   36        0.026   0.036   2.847   2.909
   37        0.024   0.036   2.800   2.860
   38        0.023   0.035   2.827   2.886
   39        0.022   0.036   2.789   2.848
   40        0.023   0.036   2.831   2.890
   41        0.025   0.036   2.825   2.886
   42        0.024   0.036   2.813   2.872
   43        0.022   0.036   2.807   2.865
   44        0.024   0.035   2.826   2.885
   45        0.012   0.172   0.000   0.184
   46        0.009   0.208   0.000   0.217
   47        0.002  -0.009   0.000  -0.007
   48        0.002  -0.013   0.000  -0.011
   49        0.002   0.021   0.000   0.022
   50        0.008   0.102   0.000   0.110
   51        0.009   0.131   0.000   0.141
   52        0.009   0.121   0.000   0.130
   53        0.009   0.155   0.000   0.164
   54        0.009   0.155   0.000   0.164
   55        0.003   0.011   0.000   0.013
   56        0.008   0.121   0.000   0.129
   57        0.009   0.163   0.000   0.172
   58        0.002  -0.006   0.000  -0.004
   59        0.002   0.005   0.000   0.007
   60        0.003  -0.002   0.000   0.001
   61        0.002   0.009   0.000   0.012
   62        0.010   0.123   0.000   0.133
   63        0.009   0.141   0.000   0.150
   64        0.009   0.115   0.000   0.123
   65        0.003   0.012   0.000   0.015
   66        0.003   0.014   0.000   0.017
   67        0.009   0.167   0.000   0.176
   68        0.011   0.155   0.000   0.166
   69        0.009   0.118   0.000   0.127
   70        0.009   0.105   0.000   0.114
   71        0.002   0.002   0.000   0.004
   72        0.008   0.108   0.000   0.116
   73        0.002  -0.012   0.000  -0.010
   74        0.009   0.132   0.000   0.141
   75        0.001  -0.019   0.000  -0.018
   76        0.003   0.023   0.000   0.026
   77        0.002   0.041   0.000   0.043
   78        0.006   0.058   0.000   0.065
   79        0.002  -0.022   0.000  -0.020
   80        0.015   0.267   0.000   0.282
   81        0.009   0.122   0.000   0.130
   82        0.016   0.353   0.000   0.369
   83        0.009   0.143   0.000   0.153
   84        0.008   0.122   0.000   0.130
   85        0.009   0.155   0.000   0.164
   86        0.010   0.161   0.000   0.171
   87        0.012   0.168   0.000   0.180
   88        0.002  -0.017   0.000  -0.015
   89        0.002  -0.026   0.000  -0.024
   90        0.008   0.109   0.000   0.118
   91        0.009   0.139   0.000   0.148
   92        0.009   0.140   0.000   0.149
   93        0.005   0.026   0.000   0.031
   94        0.009   0.111   0.000   0.120
   95        0.002  -0.017   0.000  -0.014
   96        0.003   0.013   0.000   0.016
   97        0.009   0.162   0.000   0.172
   98        0.003   0.001   0.000   0.004
   99        0.010   0.179   0.000   0.189
  100        0.009   0.140   0.000   0.149
  101        0.009   0.159   0.000   0.168
  102        0.009   0.120   0.000   0.129
  103        0.009   0.159   0.000   0.169
  104        0.012   0.160   0.000   0.172
  105        0.010   0.180   0.000   0.189
  106        0.003  -0.001   0.000   0.001
  107        0.002  -0.001   0.000   0.002
  108        0.003   0.012   0.000   0.015
  109        0.009   0.102   0.000   0.111
  110        0.004   0.023   0.000   0.028
  111        0.002  -0.024   0.000  -0.022
  112        0.016   0.296   0.000   0.311
  113        0.009   0.140   0.000   0.149
  114        0.003   0.000   0.000   0.003
  115        0.007   0.093   0.000   0.100
  116        0.009   0.114   0.000   0.123
--------------------------------------------------
tot          1.488   7.781 102.071 111.340
 

 total amount of memory used by VASP MPI-rank0   143958. kBytes
=======================================================================

   base                                    :      30000. kBytes
   nonlr-proj                              :      18672. kBytes
   fftplans                                :      13014. kBytes
   grid                                    :      18496. kBytes
   one-center                              :        466. kBytes
   wavefun                                 :      63310. kBytes
 
  
  
 General timing and accounting informations for this job:
 ========================================================
  
                  Total CPU time used (sec):     1667.038
                            User time (sec):     1657.001
                          System time (sec):       10.038
                         Elapsed time (sec):     1687.469
  
                   Maximum memory used (kb):      886796.
                   Average memory used (kb):          N/A
  
                          Minor page faults:       514069
                          Major page faults:          506
                 Voluntary context switches:        46726
