 vasp.6.5.1 10Mar25 (build Aug 06 2025 12:35:23) complex                        
  
 executed on             LinuxIFC date 2025.11.18  07:55:56
 running  128 mpi-ranks, on    2 nodes
 distrk:  each k-point on   64 cores,    2 groups
 distr:  one band on NCORE=   8 cores,    8 groups


--------------------------------------------------------------------------------------------------------


 INCAR:
   SYSTEM = NFMO_p2
   PREC = ACCURATE
   ISTART = 1
   ICHARG = 1
   LASPH = .TRUE.
   LWAVE = T
   LCHARG = T
   METAGGA = R2SCAN
   ISPIN = 2
   MAGMOM = 16*0.1 12*6.0 12*6.0 48*0.1
   LORBIT = 11
   LORBMOM = True
   ENCUT = 480
   SIGMA = 0.05
   ISMEAR = 0
   NELMIN = 2
   LREAL = AUTO
   NSW = 41
   IBRION = 2
   ISIF = 3
   EDIFF = 1.0E-06
   EDIFFG = -0.01
   NEDOS = 5001
   EMIN = -8
   EMAX = 12
   ADDGRID = .TRUE.
   LMAXMIX = 6
   LPLANE = .TRUE.
   KPAR = 2
   NPAR = 8
   LSCALU = .FALSE.
   NSIM = 4
   NGXF = 160
   NGYF = 160
   NGZF = 168

 POTCAR:    PAW_PBE Na_pv 19Sep2006               
 POTCAR:    PAW_PBE Fe 06Sep2000                  
 POTCAR:    PAW_PBE Mn_pv 02Aug2007               
 POTCAR:    PAW_PBE O 08Apr2002                   
 POTCAR:    PAW_PBE Na_pv 19Sep2006               
   VRHFIN =Na: p6s1                                                                                 
   LEXCH  = PE                                                                                      
   EATOM  =   766.0439 eV,   56.3026 Ry                                                             
                                                                                                    
   TITEL  = PAW_PBE Na_pv 19Sep2006                                                                 
   LULTRA =        F    use ultrasoft PP ?                                                          
   IUNSCR =        1    unscreen: 0-lin 1-nonlin 2-no                                               
   RPACOR =    1.800    partial core radius                                                         
   POMASS =   22.990; ZVAL   =    7.000    mass and valenz                                          
   RCORE  =    2.200    outmost cutoff radius                                                       
   RWIGS  =    2.200; RWIGS  =    1.164    wigner-seitz radius (au A)                               
   ENMAX  =  259.561; ENMIN  =  194.671 eV                                                          
   ICORE  =        2    local potential                                                             
   LCOR   =        T    correct aug charges                                                         
   LPAW   =        T    paw PP                                                                      
   EAUG   =  368.056                                                                                
   DEXC   =    0.000                                                                                
   RMAX   =    2.245    core radius for proj-oper                                                   
   RAUG   =    1.300    factor for augmentation sphere                                              
   RDEP   =    2.259    radius for radial grids                                                     
   RDEPT  =    1.738    core radius for aug-charge                                                  
                                                                                                    
   Atomic configuration                                                                             
    5 entries                                                                                       
     n  l   j            E        occ.                                                              
     1  0  0.50     -1033.6933   2.0000                                                             
     2  0  0.50       -56.7526   2.0000                                                             
     2  1  1.50       -28.6721   6.0000                                                             
     3  0  0.50        -2.7440   1.0000                                                             
     3  2  1.50        -1.3606   0.0000                                                             
   Description                                                                                      
     l       E           TYP  RCUT    TYP  RCUT                                                     
     1    -28.6720912     23  2.000                                                                 
     1      6.8029130     23  2.000                                                                 
     0     -2.7439560     23  2.200                                                                 
     0     34.0145650     23  2.200                                                                 
     2     -1.3605826     23  2.200                                                                 
  local pseudopotential read in
  partial core-charges read in
  partial kinetic energy density read in
  atomic valenz-charges read in
  non local Contribution for L=           1  read in
    real space projection operators read in
  non local Contribution for L=           1  read in
    real space projection operators read in
  non local Contribution for L=           0  read in
    real space projection operators read in
  non local Contribution for L=           0  read in
    real space projection operators read in
    PAW grid and wavefunctions read in
 
   number of l-projection  operators is LMAX  =           4
   number of lm-projection operators is LMMAX =           8
 
 POTCAR:    PAW_PBE Fe 06Sep2000                  
   VRHFIN =Fe:  d7 s1                                                                               
   LEXCH  = PE                                                                                      
   EATOM  =   594.3153 eV,   43.6809 Ry                                                             
                                                                                                    
   TITEL  = PAW_PBE Fe 06Sep2000                                                                    
   LULTRA =        F    use ultrasoft PP ?                                                          
   IUNSCR =        1    unscreen: 0-lin 1-nonlin 2-no                                               
   RPACOR =    2.000    partial core radius                                                         
   POMASS =   55.847; ZVAL   =    8.000    mass and valenz                                          
   RCORE  =    2.300    outmost cutoff radius                                                       
   RWIGS  =    2.460; RWIGS  =    1.302    wigner-seitz radius (au A)                               
   ENMAX  =  267.882; ENMIN  =  200.911 eV                                                          
   RCLOC  =    1.701    cutoff for local pot                                                        
   LCOR   =        T    correct aug charges                                                         
   LPAW   =        T    paw PP                                                                      
   EAUG   =  511.368                                                                                
   DEXC   =    0.000                                                                                
   RMAX   =    2.356    core radius for proj-oper                                                   
   RAUG   =    1.300    factor for augmentation sphere                                              
   RDEP   =    2.442    radius for radial grids                                                     
   RDEPT  =    1.890    core radius for aug-charge                                                  
                                                                                                    
   Atomic configuration                                                                             
    9 entries                                                                                       
     n  l   j            E        occ.                                                              
     1  0  0.50     -6993.8440   2.0000                                                             
     2  0  0.50      -814.6047   2.0000                                                             
     2  1  1.50      -693.3689   6.0000                                                             
     3  0  0.50       -89.4732   2.0000                                                             
     3  1  1.50       -55.6373   6.0000                                                             
     3  2  2.50        -3.8151   7.0000                                                             
     4  0  0.50        -4.2551   1.0000                                                             
     4  1  1.50        -3.4015   0.0000                                                             
     4  3  2.50        -1.3606   0.0000                                                             
   Description                                                                                      
     l       E           TYP  RCUT    TYP  RCUT                                                     
     2     -3.8151135     23  2.300                                                                 
     2     -5.1756961     23  2.300                                                                 
     0     -4.2550963     23  2.300                                                                 
     0      7.2035603     23  2.300                                                                 
     1     -2.7211652     23  2.300                                                                 
     1     18.4316424     23  2.300                                                                 
  local pseudopotential read in
  partial core-charges read in
  partial kinetic energy density read in
  atomic valenz-charges read in
  non local Contribution for L=           2  read in
    real space projection operators read in
  non local Contribution for L=           2  read in
    real space projection operators read in
  non local Contribution for L=           0  read in
    real space projection operators read in
  non local Contribution for L=           0  read in
    real space projection operators read in
  non local Contribution for L=           1  read in
    real space projection operators read in
  non local Contribution for L=           1  read in
    real space projection operators read in
    PAW grid and wavefunctions read in
 
   number of l-projection  operators is LMAX  =           6
   number of lm-projection operators is LMMAX =          18
 
 POTCAR:    PAW_PBE Mn_pv 02Aug2007               
   VRHFIN =Mn: 3p4s3d                                                                               
   LEXCH  = PE                                                                                      
   EATOM  =  2025.2664 eV,  148.8529 Ry                                                             
                                                                                                    
   TITEL  = PAW_PBE Mn_pv 02Aug2007                                                                 
   LULTRA =        F    use ultrasoft PP ?                                                          
   IUNSCR =        1    unscreen: 0-lin 1-nonlin 2-no                                               
   RPACOR =    2.080    partial core radius                                                         
   POMASS =   54.938; ZVAL   =   13.000    mass and valenz                                          
   RCORE  =    2.300    outmost cutoff radius                                                       
   RWIGS  =    2.500; RWIGS  =    1.323    wigner-seitz radius (au A)                               
   ENMAX  =  269.864; ENMIN  =  202.398 eV                                                          
   ICORE  =        3    local potential                                                             
   LCOR   =        T    correct aug charges                                                         
   LPAW   =        T    paw PP                                                                      
   EAUG   =  569.085                                                                                
   DEXC   =    0.000                                                                                
   RMAX   =    2.343    core radius for proj-oper                                                   
   RAUG   =    1.300    factor for augmentation sphere                                              
   RDEP   =    2.338    radius for radial grids                                                     
   RDEPT  =    1.798    core radius for aug-charge                                                  
                                                                                                    
   Atomic configuration                                                                             
    8 entries                                                                                       
     n  l   j            E        occ.                                                              
     1  0  0.50     -6424.8287   2.0000                                                             
     2  0  0.50      -739.1154   2.0000                                                             
     2  1  1.50      -625.3949   6.0000                                                             
     3  0  0.50       -81.6100   2.0000                                                             
     3  1  1.50       -50.4667   6.0000                                                             
     3  2  2.50        -3.3745   6.0000                                                             
     4  0  0.50        -4.1331   1.0000                                                             
     4  3  2.50        -1.3606   0.0000                                                             
   Description                                                                                      
     l       E           TYP  RCUT    TYP  RCUT                                                     
     1    -50.4666628     23  2.000                                                                 
     1     -1.3605826     23  2.000                                                                 
     2     -3.3744729     23  2.300                                                                 
     2     -4.7350555     23  2.300                                                                 
     0     -4.1331431     23  2.300                                                                 
     0      7.6656591     23  2.300                                                                 
     3      9.5240782     23  2.300                                                                 
  local pseudopotential read in
  partial core-charges read in
  partial kinetic energy density read in
  atomic valenz-charges read in
  non local Contribution for L=           1  read in
    real space projection operators read in
  non local Contribution for L=           1  read in
    real space projection operators read in
  non local Contribution for L=           2  read in
    real space projection operators read in
  non local Contribution for L=           2  read in
    real space projection operators read in
  non local Contribution for L=           0  read in
    real space projection operators read in
  non local Contribution for L=           0  read in
    real space projection operators read in
    PAW grid and wavefunctions read in
 
   number of l-projection  operators is LMAX  =           6
   number of lm-projection operators is LMMAX =          18
 
 POTCAR:    PAW_PBE O 08Apr2002                   
   VRHFIN =O: s2p4                                                                                  
   LEXCH  = PE                                                                                      
   EATOM  =   432.3788 eV,   31.7789 Ry                                                             
                                                                                                    
   TITEL  = PAW_PBE O 08Apr2002                                                                     
   LULTRA =        F    use ultrasoft PP ?                                                          
   IUNSCR =        1    unscreen: 0-lin 1-nonlin 2-no                                               
   RPACOR =    1.200    partial core radius                                                         
   POMASS =   16.000; ZVAL   =    6.000    mass and valenz                                          
   RCORE  =    1.520    outmost cutoff radius                                                       
   RWIGS  =    1.550; RWIGS  =    0.820    wigner-seitz radius (au A)                               
   ENMAX  =  400.000; ENMIN  =  300.000 eV                                                          
   ICORE  =        2    local potential                                                             
   LCOR   =        T    correct aug charges                                                         
   LPAW   =        T    paw PP                                                                      
   EAUG   =  605.392                                                                                
   DEXC   =    0.000                                                                                
   RMAX   =    1.553    core radius for proj-oper                                                   
   RAUG   =    1.300    factor for augmentation sphere                                              
   RDEP   =    1.550    radius for radial grids                                                     
   RDEPT  =    1.329    core radius for aug-charge                                                  
                                                                                                    
   Atomic configuration                                                                             
    4 entries                                                                                       
     n  l   j            E        occ.                                                              
     1  0  0.50      -514.6923   2.0000                                                             
     2  0  0.50       -23.9615   2.0000                                                             
     2  1  0.50        -9.0305   4.0000                                                             
     3  2  1.50        -9.5241   0.0000                                                             
   Description                                                                                      
     l       E           TYP  RCUT    TYP  RCUT                                                     
     0    -23.9615318     23  1.200                                                                 
     0     -9.5240782     23  1.200                                                                 
     1     -9.0304911     23  1.520                                                                 
     1      8.1634956     23  1.520                                                                 
     2     -9.5240782      7  1.500                                                                 
  local pseudopotential read in
  partial core-charges read in
  partial kinetic energy density read in
  kinetic energy density of atom read in
  atomic valenz-charges read in
  non local Contribution for L=           0  read in
    real space projection operators read in
  non local Contribution for L=           0  read in
    real space projection operators read in
  non local Contribution for L=           1  read in
    real space projection operators read in
  non local Contribution for L=           1  read in
    real space projection operators read in
    PAW grid and wavefunctions read in
 
   number of l-projection  operators is LMAX  =           4
   number of lm-projection operators is LMMAX =           8
 
 Optimization of the real space projectors (new method)

 maximal supplied QI-value         = 17.01
 optimisation between [QCUT,QGAM] = [ 11.05, 22.28] = [ 34.22,139.00] Ry 
 Optimized for a Real-space Cutoff    1.46 Angstroem

   l    n(q)    QCUT    max X(q) W(low)/X(q) W(high)/X(q)  e(spline) 
   1      9    11.055     4.940    0.16E-03    0.56E-04    0.17E-06
   1      9    11.055     6.253    0.22E-03    0.72E-04    0.23E-06
   0     10    11.055    37.438    0.47E-04    0.16E-04    0.87E-07
   0     10    11.055     9.606    0.23E-04    0.10E-04    0.62E-07
 Optimization of the real space projectors (new method)

 maximal supplied QI-value         = 16.25
 optimisation between [QCUT,QGAM] = [ 11.21, 22.43] = [ 35.21,140.85] Ry 
 Optimized for a Real-space Cutoff    1.55 Angstroem

   l    n(q)    QCUT    max X(q) W(low)/X(q) W(high)/X(q)  e(spline) 
   2      9    11.214    80.901    0.14E-03    0.12E-04    0.26E-06
   2      9    11.214    75.754    0.14E-03    0.12E-04    0.27E-06
   0     10    11.214    58.752    0.63E-04    0.27E-04    0.24E-06
   0     10    11.214    30.679    0.53E-04    0.25E-04    0.23E-06
   1     10    11.214    17.977    0.49E-04    0.11E-04    0.14E-06
   1     10    11.214    13.559    0.41E-04    0.10E-04    0.12E-06
 Optimization of the real space projectors (new method)

 maximal supplied QI-value         = 16.25
 optimisation between [QCUT,QGAM] = [ 11.21, 22.43] = [ 35.21,140.85] Ry 
 Optimized for a Real-space Cutoff    1.50 Angstroem

   l    n(q)    QCUT    max X(q) W(low)/X(q) W(high)/X(q)  e(spline) 
   1     10    11.214     3.658    0.54E-04    0.76E-04    0.12E-06
   1     10    11.214     5.612    0.10E-03    0.13E-03    0.19E-06
   2      9    11.214    55.373    0.13E-03    0.65E-04    0.17E-06
   2      9    11.214    50.863    0.14E-03    0.67E-04    0.17E-06
   0     10    11.214    79.536    0.54E-04    0.12E-04    0.76E-07
   0     10    11.214    38.668    0.46E-04    0.12E-04    0.70E-07
 Optimization of the real space projectors (new method)

 maximal supplied QI-value         = 24.76
 optimisation between [QCUT,QGAM] = [ 11.14, 22.28] = [ 34.75,139.00] Ry 
 Optimized for a Real-space Cutoff    1.22 Angstroem

   l    n(q)    QCUT    max X(q) W(low)/X(q) W(high)/X(q)  e(spline) 
   0      8    11.140    20.381    0.13E-03    0.36E-03    0.24E-06
   0      8    11.140    15.268    0.14E-03    0.38E-03    0.27E-06
   1      8    11.140     5.964    0.19E-03    0.36E-03    0.26E-06
   1      8    11.140     5.382    0.15E-03    0.30E-03    0.24E-06
 -----------------------------------------------------------------------------
|                                                                             |
|               ----> ADVICE to this user running VASP <----                  |
|                                                                             |
|     You enforced a specific xc type in the INCAR file but a different       |
|     type was found in the POTCAR file.                                      |
|     I HOPE YOU KNOW WHAT YOU ARE DOING!                                     |
|                                                                             |
 -----------------------------------------------------------------------------

  PAW_PBE Na_pv 19Sep2006               :
 energy of atom  1       EATOM= -766.0439
 kinetic energy error for atom=    0.0026 (will be added to EATOM!!)
  PAW_PBE Fe 06Sep2000                  :
 energy of atom  2       EATOM= -594.3153
 kinetic energy error for atom=    0.0027 (will be added to EATOM!!)
  PAW_PBE Mn_pv 02Aug2007               :
 energy of atom  3       EATOM=-2025.2664
 kinetic energy error for atom=    0.0072 (will be added to EATOM!!)
  PAW_PBE O 08Apr2002                   :
 energy of atom  4       EATOM= -432.3788
 kinetic energy error for atom=    0.0258 (will be added to EATOM!!)
 
 
 POSCAR: Na Fe Mn O
  positions in direct lattice
  velocities in cartesian coordinates


 exchange-correlation table for R2SCAN
   RHO(1)=    0.500       N(1)  =     2000
   RHO(2)=  100.500       N(2)  =     4000
 


--------------------------------------------------------------------------------------------------------


 ion  position               nearest neighbor table
   1  0.332  0.998  0.568-  63 2.38  51 2.38  25 2.76  29 2.81
   2  0.996  0.672  0.564-  49 2.32  59 2.35  61 2.35  47 2.36  17 2.77  38 2.79
   3  0.335  0.003  0.063-  67 2.36  25 2.75  29 2.80
   4  0.987  0.677  0.066-  71 2.36  17 2.77  38 2.79
   5  0.661  0.982  0.565-  54 2.30  52 2.31
   6  0.852  0.152  0.565-  53 2.27  41 2.27  46 2.38
   7  0.026  0.335  0.565-  47 2.27  55 2.28
   8  0.477  0.342  0.565-  57 2.27  45 2.27
   9  0.668  0.532  0.564-  50 2.31  62 2.31
  10  0.309  0.692  0.565-  49 2.27  63 2.31
  11  0.028  0.975  0.065-  65 2.29  88 2.31
  12  0.664  0.143  0.065-  78 2.29  66 2.30  81 2.38
  13  0.851  0.332  0.065-  70 2.26  82 2.28
  14  0.300  0.339  0.063-  83 2.25  67 2.29  71 2.38
  15  0.473  0.520  0.065-  85 2.27  73 2.27
  16  0.663  0.687  0.064-  75 2.30  86 2.30
  17  0.007  0.663  0.315-  83 1.96  49 1.99  47 2.02  88 2.07  86 2.11  52 2.14   2 2.77   4 2.77
                            18 2.80  21 2.81  19 2.82  22 2.88  30 2.98  34 2.99
  18  0.162  0.343  0.315-  47 1.98  83 1.98  45 2.03  82 2.04  79 2.11  43 2.14  17 2.80  22 2.84
                            19 2.85  33 2.93  32 2.96  29 2.98
  19  0.330  0.503  0.316-  45 2.02  85 2.03  49 2.05  83 2.07  81 2.13  48 2.13  17 2.82  18 2.85
                            21 2.86  20 2.88  33 2.93  31 2.94
  20  0.659  0.343  0.315-  84 2.01  48 2.05  81 2.07  46 2.08  44 2.09  80 2.14  19 2.88  31 2.88
                            33 2.94  22 2.94  32 2.96  30 2.98
  21  0.163  0.829  0.315-  49 1.96  85 1.99  88 2.01  41 2.06  51 2.10  77 2.12  17 2.81  19 2.86
                            30 2.91  31 2.92  29 2.97  32 2.97
  22  0.836  0.503  0.314-  47 1.98  82 1.99  86 2.03  50 2.06  46 2.11  84 2.12  18 2.84  17 2.88
                            34 2.92  32 2.94  20 2.94  31 2.96
  23  0.334  0.500  0.816-  73 2.02  57 2.02  71 2.08  61 2.08  69 2.09  60 2.10  24 2.82  26 2.90
                            38 2.92  35 2.93  27 2.93  39 2.93
  24  0.657  0.343  0.815-  72 2.01  60 2.03  69 2.04  56 2.08  58 2.09  68 2.15  23 2.82  39 2.88
                            28 2.91  35 2.91  40 2.97  36 3.00
  25  0.325  0.010  0.816-  65 1.98  55 2.01  67 2.01  54 2.06  63 2.07  75 2.12   3 2.75   1 2.76
                            27 2.82  40 2.86  35 2.90  26 2.90  39 2.96  37 2.98
  26  0.170  0.832  0.812-  63 2.00  73 2.00  61 2.00  65 2.04  53 2.06  76 2.08  39 2.87  25 2.90
                            23 2.90  38 2.92  40 2.94  36 2.94
  27  0.167  0.331  0.815-  57 2.03  70 2.03  67 2.08  55 2.08  71 2.09  59 2.09  25 2.82  28 2.90
                            35 2.91  40 2.92  23 2.93  38 2.94
  28  0.836  0.497  0.812-  70 1.99  59 2.00  58 2.01  62 2.06  72 2.06  74 2.07  40 2.89  27 2.90
                            38 2.91  24 2.91  39 2.95  37 2.95
  29  0.329  0.003  0.315-  77 1.89  43 1.89  51 1.90  79 1.91  42 1.95  87 1.95   3 2.80   1 2.81
                            32 2.89  31 2.90  33 2.91  34 2.94  21 2.97  18 2.98
  30  0.830  0.003  0.313-  88 1.88  41 1.88  52 1.93  78 1.94  80 1.94  44 1.96  34 2.89  32 2.90
                            21 2.91  33 2.91  17 2.98  20 2.98
  31  0.497  0.672  0.316-  85 1.88  48 1.89  84 1.92  50 1.93  51 1.93  87 1.97  20 2.88  34 2.90
                            29 2.90  21 2.92  19 2.94  22 2.96
  32  0.998  0.168  0.316-  82 1.87  46 1.91  41 1.93  43 1.93  80 1.95  77 1.95  29 2.89  30 2.90
                            22 2.94  20 2.96  18 2.96  21 2.97
  33  0.497  0.168  0.313-  45 1.86  81 1.89  79 1.91  78 1.94  44 1.94  42 1.96  29 2.91  34 2.91
                            30 2.91  19 2.93  18 2.93  20 2.94
  34  0.665  0.836  0.313-  86 1.86  50 1.88  52 1.90  78 1.93  87 1.96  42 1.97  30 2.89  31 2.90
                            33 2.91  22 2.92  29 2.94  17 2.99
  35  0.500  0.166  0.820-  57 1.87  67 1.87  69 1.90  54 1.94  66 1.95  56 1.97  25 2.90  37 2.90
                            27 2.91  36 2.91  24 2.91  23 2.93
  36  0.833  0.000  0.816-  53 1.88  76 1.90  68 1.92  66 1.93  64 1.94  56 1.94  40 2.89  37 2.91
                            35 2.91  38 2.93  26 2.94  24 3.00
  37  0.666  0.834  0.816-  62 1.89  75 1.90  74 1.91  54 1.92  66 1.93  64 1.95  39 2.87  35 2.90
                            36 2.91  38 2.93  28 2.95  25 2.98
  38  0.001  0.666  0.815-  71 1.85  61 1.88  59 1.88  74 1.95  76 1.95  64 2.00   4 2.79   2 2.79
                            28 2.91  23 2.92  26 2.92  36 2.93  37 2.93  27 2.94
  39  0.499  0.672  0.813-  73 1.89  63 1.90  62 1.92  75 1.93  60 1.93  72 1.96  37 2.87  26 2.87
                            24 2.88  23 2.93  28 2.95  25 2.96
  40  0.997  0.167  0.813-  70 1.88  55 1.90  65 1.92  53 1.93  58 1.93  68 1.96  25 2.86  36 2.89
                            28 2.89  27 2.92  26 2.94  24 2.97
  41  0.985  0.009  0.403-  30 1.88  32 1.93  21 2.06   6 2.27
  42  0.496  0.003  0.404-  29 1.95  33 1.96  34 1.97
  43  0.166  0.155  0.408-  29 1.89  32 1.93  18 2.14
  44  0.662  0.162  0.408-  33 1.94  30 1.96  20 2.09
  45  0.346  0.322  0.406-  33 1.86  19 2.02  18 2.03   8 2.27
  46  0.843  0.322  0.414-  32 1.91  20 2.08  22 2.11   6 2.38
  47  0.997  0.502  0.417-  22 1.98  18 1.98  17 2.02   7 2.27   2 2.36
  48  0.500  0.520  0.417-  31 1.89  20 2.05  19 2.13
  49  0.163  0.672  0.420-  21 1.96  17 1.99  19 2.05  10 2.27   2 2.32
  50  0.657  0.682  0.403-  34 1.88  31 1.93  22 2.06   9 2.31
  51  0.339  0.840  0.407-  29 1.90  31 1.93  21 2.10   1 2.38
  52  0.818  0.848  0.406-  34 1.90  30 1.93  17 2.14   5 2.31
  53  0.987  0.008  0.725-  36 1.88  40 1.93  26 2.06   6 2.27
  54  0.508  0.000  0.726-  37 1.92  35 1.94  25 2.06   5 2.30
  55  0.152  0.165  0.715-  40 1.90  25 2.01  27 2.08   7 2.28
  56  0.667  0.159  0.723-  36 1.94  35 1.97  24 2.08
  57  0.349  0.320  0.726-  35 1.87  23 2.02  27 2.03   8 2.27
  58  0.841  0.327  0.715-  40 1.93  28 2.01  24 2.09
  59  0.996  0.515  0.719-  38 1.88  28 2.00  27 2.09   2 2.35
  60  0.501  0.516  0.712-  39 1.93  24 2.03  23 2.10
  61  0.152  0.671  0.720-  38 1.88  26 2.00  23 2.08   2 2.35
  62  0.659  0.680  0.725-  37 1.89  39 1.92  28 2.06   9 2.31
  63  0.342  0.827  0.719-  39 1.90  26 2.00  25 2.07  10 2.31   1 2.38
  64  0.829  0.838  0.725-  36 1.94  37 1.95  38 2.00
  65  0.156  0.010  0.909-  40 1.92  25 1.98  26 2.04  11 2.29
  66  0.669  0.998  0.904-  36 1.93  37 1.93  35 1.95  12 2.30
  67  0.347  0.164  0.915-  35 1.87  25 2.01  27 2.08  14 2.29   3 2.36
  68  0.840  0.156  0.911-  36 1.92  40 1.96  24 2.15
  69  0.501  0.320  0.918-  35 1.90  24 2.04  23 2.09
  70  0.996  0.324  0.906-  40 1.88  28 1.99  27 2.03  13 2.26
  71  0.149  0.517  0.912-  38 1.85  23 2.08  27 2.09   4 2.36  14 2.38
  72  0.657  0.511  0.913-  39 1.96  24 2.01  28 2.06
  73  0.343  0.669  0.906-  39 1.89  26 2.00  23 2.02  15 2.27
  74  0.829  0.678  0.906-  37 1.91  38 1.95  28 2.07
  75  0.510  0.827  0.908-  37 1.90  39 1.93  25 2.12  16 2.30
  76  0.989  0.837  0.906-  36 1.90  38 1.95  26 2.08
  77  0.168  0.010  0.223-  29 1.89  32 1.95  21 2.12
  78  0.664  0.002  0.226-  34 1.93  30 1.94  33 1.94  12 2.29
  79  0.341  0.157  0.223-  33 1.91  29 1.91  18 2.11
  80  0.841  0.159  0.219-  30 1.94  32 1.95  20 2.14
  81  0.500  0.318  0.213-  33 1.89  20 2.07  19 2.13  12 2.38
  82  0.996  0.324  0.224-  32 1.87  22 1.99  18 2.04  13 2.28
  83  0.160  0.503  0.211-  17 1.96  18 1.98  19 2.07  14 2.25
  84  0.651  0.514  0.216-  31 1.92  20 2.01  22 2.12
  85  0.342  0.670  0.224-  31 1.88  21 1.99  19 2.03  15 2.27
  86  0.816  0.684  0.219-  34 1.86  22 2.03  17 2.11  16 2.30
  87  0.496  0.840  0.224-  29 1.95  34 1.96  31 1.97
  88  0.985  0.848  0.219-  30 1.88  21 2.01  17 2.07  11 2.31
 
  LATTYP: Found a triclinic cell.
 ALAT       =    10.1121089682
 B/A-ratio  =     0.9982688636
 C/A-ratio  =     1.0988469153
 COS(alpha) =     0.0001070766
 COS(beta)  =     0.0027415776
 COS(gamma) =     0.5035065977
  
  Lattice vectors:
  
 A1 = (  -5.0788062699,   8.7440941503,   0.0359464611)
 A2 = (   4.9890216834,   8.7755010176,   0.0355657702)
 A3 = (  -0.0300226503,   0.0634699998, -11.1114379150)


Analysis of symmetry for initial positions (statically):
=====================================================================
 Subroutine PRICEL returns:
 Original cell was already a primitive cell.
 

 Routine SETGRP: Setting up the symmetry group for a 
 triclinic supercell.


 Subroutine GETGRP returns: Found  1 space group operations
 (whereof  1 operations were pure point group operations)
 out of a pool of  2 trial point group operations.


The static configuration has the point symmetry C_1 .


Analysis of symmetry for dynamics (positions and initial velocities):
=====================================================================
 Subroutine PRICEL returns:
 Original cell was already a primitive cell.
 

 Routine SETGRP: Setting up the symmetry group for a 
 triclinic supercell.


 Subroutine GETGRP returns: Found  1 space group operations
 (whereof  1 operations were pure point group operations)
 out of a pool of  2 trial point group operations.


The dynamic configuration has the point symmetry C_1 .


Analysis of structural, dynamic, and magnetic symmetry:
=====================================================================
 Subroutine PRICEL returns:
 Original cell was already a primitive cell.
 

 Routine SETGRP: Setting up the symmetry group for a 
 triclinic supercell.


 Subroutine GETGRP returns: Found  1 space group operations
 (whereof  1 operations were pure point group operations)
 out of a pool of  2 trial point group operations.


The overall configuration has the point symmetry C_1 .


 Subroutine INISYM returns: Found  1 space group operations
 (whereof  1 operations are pure point group operations),
 and found     1 'primitive' translations


----------------------------------------------------------------------------------------

                                     Primitive cell                                     

  volume of cell :     979.9801

  direct lattice vectors                    reciprocal lattice vectors
    10.067827953  0.031406867 -0.000380691     0.099502729 -0.056566596 -0.000591968
     4.989021683  8.775501018  0.035565770    -0.000356080  0.114153399  0.000653021
     0.030022650 -0.063470000 11.111437915     0.000004549 -0.000367323  0.089995242

  length of vectors
    10.067876948 10.094603528 11.111659747     0.114459264  0.114155822  0.089995992

  position of ions in fractional coordinates (direct lattice)
     0.332475671  0.998296108  0.567690148
     0.995536578  0.672120033  0.563551540
     0.334977993  0.002593576  0.062799024
     0.987305340  0.677443295  0.066200684
     0.660940008  0.981636137  0.565049840
     0.852121653  0.151552177  0.565220166
     0.026130348  0.335299543  0.564877733
     0.476684798  0.341674903  0.565313306
     0.668336406  0.531592038  0.563561905
     0.308698707  0.691794560  0.565320406
     0.028445801  0.975236988  0.064711238
     0.664384203  0.143110269  0.065245804
     0.851173844  0.331569561  0.064612712
     0.299704120  0.339105792  0.063323758
     0.472950184  0.520084656  0.065498500
     0.663198222  0.686962664  0.064450992
     0.006600807  0.663103080  0.314856360
     0.161680056  0.343305770  0.315366032
     0.329618684  0.502642782  0.316072041
     0.658827716  0.343033675  0.315005717
     0.163036513  0.828523566  0.315309488
     0.836158489  0.502927609  0.314133495
     0.334368789  0.500248376  0.815910385
     0.657048422  0.342926623  0.815446864
     0.324658785  0.009535097  0.815537860
     0.170133444  0.831824820  0.812372094
     0.167412835  0.331218409  0.815184392
     0.836085232  0.497251509  0.812369598
     0.328572604  0.003422488  0.315137441
     0.830226482  0.002624420  0.313380764
     0.496851558  0.672152789  0.315700184
     0.997532942  0.167688331  0.315693558
     0.496930948  0.168206598  0.313036962
     0.664883597  0.836133589  0.313443764
     0.500228637  0.166015288  0.819684375
     0.833152940  0.000223368  0.816051722
     0.665666789  0.834465021  0.816107230
     0.000544498  0.666315289  0.814968448
     0.498908974  0.672005861  0.813277257
     0.996833523  0.167373271  0.813040725
     0.985201452  0.009442668  0.403249214
     0.495510195  0.002729918  0.404124436
     0.166338681  0.154730392  0.407907498
     0.661572567  0.162049441  0.408167295
     0.345673715  0.321671868  0.406437111
     0.842905704  0.322451873  0.414196614
     0.997096561  0.502276626  0.416532142
     0.500162544  0.520113123  0.416964610
     0.162622036  0.671761069  0.419660240
     0.656652051  0.682027333  0.403028155
     0.339275214  0.839541649  0.406826304
     0.817931727  0.847560264  0.405655116
     0.986686614  0.008080457  0.725218566
     0.507758512  0.000416247  0.725766811
     0.152379658  0.165449372  0.714857663
     0.667216035  0.158639743  0.722557674
     0.348729045  0.319652651  0.725581571
     0.840534174  0.326581137  0.715470807
     0.996339093  0.515005872  0.719412457
     0.500606621  0.515626778  0.711659750
     0.152423831  0.671370855  0.720115558
     0.659441674  0.679671370  0.725008220
     0.341876708  0.826954539  0.718761898
     0.829301992  0.838064412  0.725240328
     0.155965066  0.010424249  0.908687903
     0.669242446  0.997834206  0.904381452
     0.347030052  0.164273803  0.914602800
     0.840143338  0.155589007  0.910801596
     0.501021896  0.319848921  0.917856074
     0.996233448  0.323635309  0.906307327
     0.148927313  0.517262786  0.912186347
     0.656886147  0.510658968  0.912676189
     0.343247829  0.669477440  0.906259787
     0.829463278  0.678073053  0.906184969
     0.509718761  0.827216274  0.907518304
     0.988757984  0.837151128  0.906431868
     0.168132035  0.009855220  0.223288433
     0.664343855  0.001766614  0.226403725
     0.341099544  0.157146960  0.223411951
     0.841282919  0.158706573  0.219021490
     0.500093546  0.318231294  0.213446554
     0.996047603  0.324219748  0.224020062
     0.160296110  0.503387786  0.210865049
     0.650780480  0.514003511  0.216363280
     0.341584948  0.670120511  0.224118139
     0.816475424  0.683819976  0.218860084
     0.495872174  0.839839752  0.224343649
     0.984929048  0.848212499  0.219022619

  ion indices of the primitive-cell ions
   primitive index   ion index
                 1           1
                 2           2
                 3           3
                 4           4
                 5           5
                 6           6
                 7           7
                 8           8
                 9           9
                10          10
                11          11
                12          12
                13          13
                14          14
                15          15
                16          16
                17          17
                18          18
                19          19
                20          20
                21          21
                22          22
                23          23
                24          24
                25          25
                26          26
                27          27
                28          28
                29          29
                30          30
                31          31
                32          32
                33          33
                34          34
                35          35
                36          36
                37          37
                38          38
                39          39
                40          40
                41          41
                42          42
                43          43
                44          44
                45          45
                46          46
                47          47
                48          48
                49          49
                50          50
                51          51
                52          52
                53          53
                54          54
                55          55
                56          56
                57          57
                58          58
                59          59
                60          60
                61          61
                62          62
                63          63
                64          64
                65          65
                66          66
                67          67
                68          68
                69          69
                70          70
                71          71
                72          72
                73          73
                74          74
                75          75
                76          76
                77          77
                78          78
                79          79
                80          80
                81          81
                82          82
                83          83
                84          84
                85          85
                86          86
                87          87
                88          88

----------------------------------------------------------------------------------------

 
 
 KPOINTS: K-Spacing Value to Generate K-Mesh: 0.04

Automatic generation of k-mesh.
 Grid dimensions read from file:
 generate k-points for:    4    4    1

 Generating k-lattice:

  Cartesian coordinates                     Fractional coordinates (reciprocal lattice)
     0.024875682 -0.014141649 -0.000147992     0.250000000 -0.000000000 -0.000000000
    -0.000089020  0.028538350  0.000163255     0.000000000  0.250000000  0.000000000
     0.000004549 -0.000367323  0.089995242     0.000000000 -0.000000000  1.000000000

  Length of vectors
     0.028614816  0.028538955  0.089995992

  Shift w.r.t. Gamma in fractional coordinates (k-lattice)
     0.000000000  0.000000000  0.000000000

 
 Subroutine IBZKPT returns following result:
 ===========================================
 
 Found     10 irreducible k-points:
 
 Following reciprocal coordinates:
            Coordinates               Weight
  0.000000  0.000000  0.000000      1.000000
  0.250000  0.000000  0.000000      2.000000
  0.500000  0.000000  0.000000      1.000000
  0.000000  0.250000  0.000000      2.000000
  0.250000  0.250000  0.000000      2.000000
  0.500000  0.250000  0.000000      2.000000
 -0.250000  0.250000  0.000000      2.000000
  0.000000  0.500000  0.000000      1.000000
  0.250000  0.500000  0.000000      2.000000
  0.500000  0.500000  0.000000      1.000000
 
 Following cartesian coordinates:
            Coordinates               Weight
  0.000000  0.000000  0.000000      1.000000
  0.024876 -0.014142 -0.000148      2.000000
  0.049751 -0.028283 -0.000296      1.000000
 -0.000089  0.028538  0.000163      2.000000
  0.024787  0.014397  0.000015      2.000000
  0.049662  0.000255 -0.000133      2.000000
 -0.024965  0.042680  0.000311      2.000000
 -0.000178  0.057077  0.000327      1.000000
  0.024698  0.042935  0.000179      2.000000
  0.049573  0.028793  0.000031      1.000000
 


--------------------------------------------------------------------------------------------------------




 Dimension of arrays:
   k-points           NKPTS =     10   k-points in BZ     NKDIM =     10   number of bands    NBANDS=    472
   number of dos      NEDOS =   5001   number of ions     NIONS =     88
   non local maximal  LDIM  =      6   non local SUM 2l+1 LMDIM =     18
   total plane-waves  NPLWV = 414720
   max r-space proj   IRMAX =   6650   max aug-charges    IRDMAX= 156514
   dimension x,y,z NGX =    72 NGY =   72 NGZ =   80
   dimension x,y,z NGXF=   160 NGYF=  160 NGZF=  168
   support grid    NGXF=   320 NGYF=  320 NGZF=  336
   ions per type =              16  12  12  48
   NGX,Y,Z   is equivalent  to a cutoff of  11.89, 11.86, 11.97 a.u.
   NGXF,Y,Z  is equivalent  to a cutoff of  26.42, 26.35, 25.14 a.u.

 SYSTEM =  NFMO_p2                                 
 POSCAR =  Na Fe Mn O                              

 Startparameter for this run:
   NWRITE =      2    write-flag & timer
   PREC   = accura    normal or accurate (medium, high low for compatibility)
   ISTART =      1    job   : 0-new  1-cont  2-samecut
   ICHARG =      1    charge: 1-file 2-atom 10-const
   ISPIN  =      2    spin polarized calculation?
   LNONCOLLINEAR =      F non collinear calculations
   LSORBIT =      F    spin-orbit coupling
   INIWAV =      1    electr: 0-lowe 1-rand  2-diag
   LASPH  =      T    aspherical Exc in radial PAW
 Electronic Relaxation 1
   ENCUT  =  480.0 eV  35.28 Ry    5.94 a.u.  17.99 18.03 19.85*2*pi/ulx,y,z
   ENINI  =  480.0     initial cutoff
   ENAUG  =  605.4 eV  augmentation charge cutoff
   NELM   =     60;   NELMIN=  2; NELMDL=  0     # of ELM steps 
   EDIFF  = 0.1E-05   stopping-criterion for ELM
   LREAL  =      T    real-space projection
   NLSPLINE    = F    spline interpolate recip. space projectors
   LCOMPAT=      F    compatible to vasp.4.4
   GGA_COMPAT  = T    GGA compatible to vasp.4.4-vasp.4.6
   LMAXPAW     = -100 max onsite density
   LMAXMIX     =    6 max onsite mixed and CHGCAR
   VOSKOWN=      0    Vosko Wilk Nusair interpolation
   ROPT   =   -0.00025  -0.00025  -0.00025  -0.00025
 Ionic relaxation
   EDIFFG = -.1E-01   stopping-criterion for IOM
   NSW    =     41    number of steps for IOM
   NBLOCK =      1;   KBLOCK =     41    inner block; outer block 
   IBRION =      2    ionic relax: 0-MD 1-quasi-New 2-CG
   NFREE  =      1    steps in history (QN), initial steepest desc. (CG)
   ISIF   =      3    stress and relaxation
   IWAVPR =     11    prediction:  0-non 1-charg 2-wave 3-comb
   ISYM   =      2    0-nonsym 1-usesym 2-fastsym
   LCORR  =      T    Harris-Foulkes like correction to forces

   POTIM  = 0.5000    time-step for ionic-motion
   TEIN   =    0.0    initial temperature
   TEBEG  =    0.0;   TEEND  =   0.0 temperature during run
   SMASS  =  -3.00    Nose mass-parameter (am)
   estimated Nose-frequenzy (Omega)   =  0.10E-29 period in steps = 0.13E+47 mass=  -0.232E-26a.u.
   SCALEE = 1.0000    scale energy and forces
   NPACO  =    256;   APACO  = 10.0  distance and # of slots for P.C.
   PSTRESS=    0.0 pullay stress

  Mass of Ions in am
   POMASS =  22.99 55.85 54.94 16.00
  Ionic Valenz
   ZVAL   =   7.00  8.00 13.00  6.00
  Atomic Wigner-Seitz radii
   RWIGS  =  -1.00 -1.00 -1.00 -1.00
  virtual crystal weights 
   VCA    =   1.00  1.00  1.00  1.00
   NELECT =     652.0000    total number of electrons
   NUPDOWN=      -1.0000    fix difference up-down

 DOS related values:
   EMIN   =  -8.00;   EMAX   = 12.00  energy-range for DOS
   EFERMI =   0.00;   METHOD = LEGACY      
   ISMEAR =     0;   SIGMA  =   0.05  broadening in eV -4-tet -1-fermi 0-gaus
   EFERMI_NEDOS =   21; number of points for ismear=-14 and -15

 Electronic relaxation 2 (details)
   IALGO  =     38    algorithm
   LDIAG  =      T    sub-space diagonalisation (order eigenvalues)
   LSUBROT=      F    optimize rotation matrix (better conditioning)
   LROBUST=      F    robust break criterion during scf (extrapolated energy error)
   ISEARCH=      0    line search for conjugate gradient (0, 1=use gradient)
   TURBO    =      0    0=normal 1=particle mesh
   IRESTART =      0    0=no restart 2=restart with 2 vectors
   NREBOOT  =      0    no. of reboots
   NMIN     =      0    reboot dimension
   EREF     =   0.00    reference energy to select bands
   IMIX   =      4    mixing-type and parameters
     AMIX     =   0.40;   BMIX     =  1.00
     AMIX_MAG =   1.60;   BMIX_MAG =  1.00
     AMIN     =   0.10
     WC   =   100.;   INIMIX=   1;  MIXPRE=   1;  MAXMIX= -45

 Intra band minimization:
   WEIMIN = 0.0010     energy-eigenvalue tresh-hold
   EBREAK =  0.53E-09  absolut break condition
   DEPER  =   0.30     relativ break condition  

   TIME   =   0.40     timestep for ELM

  volume/ion in A,a.u.               =      11.14        75.15
  Fermi-wavevector in a.u.,A,eV,Ry     =   1.429173  2.700746 27.790401  2.042537
  Thomas-Fermi vector in A             =   2.549156
 
 Write flags
   LWAVE        =      T    write WAVECAR
   LDOWNSAMPLE  =      F    k-point downsampling of WAVECAR
   LCHARG       =      T    write CHGCAR
   LVTOT        =      F    write LOCPOT, total local potential
   LVHAR        =      F    write LOCPOT, Hartree potential only
   WRT_POTENTIAL= false  ! write potential to hdf5 file
   LELF         =      F    write electronic localiz. function (ELF)
   LORBIT       =     11    0 simple, 1 ext, 2 COOP (PROOUT), +10 PAW based schemes


 Python interface
   PLUGINS active      =      F    recompile with -DPLUGINS to activate
 
 Dipole corrections
   LMONO      =      F    monopole corrections only (constant potential shift)
   LDIPOL     =      F    correct potential (dipole corrections)
   IDIPOL     =      0    1-x, 2-y, 3-z, 4-all directions 
   EPSILON    =  1.0000000 bulk dielectric constant
   LVACPOTAV  =      F  vacuum potentials using an averaging scheme for the charge density
   VACPOTFLAT =  0.1000000 required flatness to determine vacuum potential
 
Coulomb truncation method
  LTRUNCATE          =      F  Coulomb kernel truncation to be used

 
 Exchange correlation treatment:
   METAGGA = R2SCAN    functional components
   XC_C    = 1    coefficients multiplying the functional components
   LIBXC   =     F    Libxc                    
   VOSKOWN =     0    Vosko Wilk Nusair interpolation
   LHFCALC =     F    Hartree Fock is set to
   LHFONE  =     F    Hartree Fock one center treatment
   AEXX    =    0.0000 exact exchange contribution

 Parameters of functionals:
   R2SCAN:
     No parameter
 
 Accuracy and mixing parameters for tau-dependent meta-GGA functionals:
   LMAXTAU = 6
   LMIXTAU = F
 
 Van der Waals corrections
   IVDW    =     0    specifies the selected vdW correction

 Linear response parameters
   LEPSILON=     F    determine dielectric tensor
   LRPA    =     F    only Hartree local field effects (RPA)
   LNABLA  =     F    use nabla operator in PAW spheres
   LVEL    =     F    velocity operator in full k-point grid
   CSHIFT  =0.1000    complex shift for real part using Kramers Kronig
   OMEGAMAX=  -1.0    maximum frequency
   DEG_THRESHOLD= 0.2000000E-02 threshold for treating states as degnerate
   RTIME   =   -0.100 relaxation time in fs
  (WPLASMAI=    0.000 imaginary part of plasma frequency in eV, 0.658/RTIME)
   DFIELD  = 0.0000000 0.0000000 0.0000000 field for delta impulse in time
 
  Optional k-point grid parameters
   LKPOINTS_OPT  =     F    use optional k-point grid
   KPOINTS_OPT_MODE=     1    mode for optional k-point grid
 
 Orbital magnetization related:
   ORBITALMAG=     F  switch on orbital magnetization
   LCHIMAG   =     F  perturbation theory with respect to B field
   DQ        =  0.001000  dq finite difference perturbation B field
   LLRAUG    =     F  two centre corrections for induced B field
   LBONE     =     F  B-component reconstruction in AE one-centre
   LVGVCALC  =     T  calculate vGv susceptibility
   LVGVAPPL  =     F  apply vGv susceptibility instead of pGv for G=0

 Random number generation:
   RANDOM_GENERATOR = DEFAULT
   PCG_SEED         = not used


--------------------------------------------------------------------------------------------------------


 conjugate gradient relaxation of ions
 charge density and potential will be updated during run
 spin polarized calculation
 Variant of blocked Davidson
 Davidson routine will perform the subspace rotation
 perform sub-space diagonalisation
    after iterative eigenvector-optimisation
 modified Broyden-mixing scheme, WC =      100.0
 initial mixing is a Kerker type mixing with AMIX =  0.4000 and BMIX =      1.0000
 Hartree-type preconditioning will be used
 using additional bands          146
 real space projection scheme for non local part
 use partial core corrections
 calculate Harris-corrections to forces 
   (improved forces if not selfconsistent)
 use gradient corrections 
 use of overlap-Matrix (Vanderbilt PP)
 Gauss-broadening in eV      SIGMA  =   0.05


--------------------------------------------------------------------------------------------------------


  energy-cutoff  :      480.00
  volume of cell :      979.98
      direct lattice vectors                 reciprocal lattice vectors
    10.067827953  0.031406867 -0.000380691     0.099502729 -0.056566596 -0.000591968
     4.989021683  8.775501018  0.035565770    -0.000356080  0.114153399  0.000653021
     0.030022650 -0.063470000 11.111437915     0.000004549 -0.000367323  0.089995242

  length of vectors
    10.067876948 10.094603528 11.111659747     0.114459264  0.114155822  0.089995992


 
 old parameters found on file WAVECAR:
  energy-cutoff  :      480.00
  volume of cell :      979.98
      direct lattice vectors                 reciprocal lattice vectors
    10.067827953  0.031406867 -0.000380691     0.099502729 -0.056566596 -0.000591968
     4.989021683  8.775501018  0.035565770    -0.000356080  0.114153399  0.000653021
     0.030022650 -0.063470000 11.111437915     0.000004549 -0.000367323  0.089995242

  length of vectors

 
 k-points in units of 2pi/SCALE and weight: K-Spacing Value to Generate K-Mesh: 0.04
   0.00000000  0.00000000  0.00000000       0.062
   0.02487568 -0.01414165 -0.00014799       0.125
   0.04975136 -0.02828330 -0.00029598       0.062
  -0.00008902  0.02853835  0.00016326       0.125
   0.02478666  0.01439670  0.00001526       0.125
   0.04966234  0.00025505 -0.00013273       0.125
  -0.02496470  0.04268000  0.00031125       0.125
  -0.00017804  0.05707670  0.00032651       0.062
   0.02469764  0.04293505  0.00017852       0.125
   0.04957332  0.02879340  0.00003053       0.062
 
 k-points in reciprocal lattice and weights: K-Spacing Value to Generate K-Mesh: 0.04
   0.00000000  0.00000000  0.00000000       0.062
   0.25000000  0.00000000  0.00000000       0.125
   0.50000000  0.00000000  0.00000000       0.062
   0.00000000  0.25000000  0.00000000       0.125
   0.25000000  0.25000000  0.00000000       0.125
   0.50000000  0.25000000  0.00000000       0.125
  -0.25000000  0.25000000  0.00000000       0.125
   0.00000000  0.50000000  0.00000000       0.062
   0.25000000  0.50000000  0.00000000       0.125
   0.50000000  0.50000000  0.00000000       0.062
 
 position of ions in fractional coordinates (direct lattice) 
   0.33247567  0.99829611  0.56769015
   0.99553658  0.67212003  0.56355154
   0.33497799  0.00259358  0.06279902
   0.98730534  0.67744329  0.06620068
   0.66094001  0.98163614  0.56504984
   0.85212165  0.15155218  0.56522017
   0.02613035  0.33529954  0.56487773
   0.47668480  0.34167490  0.56531331
   0.66833641  0.53159204  0.56356190
   0.30869871  0.69179456  0.56532041
   0.02844580  0.97523699  0.06471124
   0.66438420  0.14311027  0.06524580
   0.85117384  0.33156956  0.06461271
   0.29970412  0.33910579  0.06332376
   0.47295018  0.52008466  0.06549850
   0.66319822  0.68696266  0.06445099
   0.00660081  0.66310308  0.31485636
   0.16168006  0.34330577  0.31536603
   0.32961868  0.50264278  0.31607204
   0.65882772  0.34303367  0.31500572
   0.16303651  0.82852357  0.31530949
   0.83615849  0.50292761  0.31413350
   0.33436879  0.50024838  0.81591039
   0.65704842  0.34292662  0.81544686
   0.32465879  0.00953510  0.81553786
   0.17013344  0.83182482  0.81237209
   0.16741284  0.33121841  0.81518439
   0.83608523  0.49725151  0.81236960
   0.32857260  0.00342249  0.31513744
   0.83022648  0.00262442  0.31338076
   0.49685156  0.67215279  0.31570018
   0.99753294  0.16768833  0.31569356
   0.49693095  0.16820660  0.31303696
   0.66488360  0.83613359  0.31344376
   0.50022864  0.16601529  0.81968437
   0.83315294  0.00022337  0.81605172
   0.66566679  0.83446502  0.81610723
   0.00054450  0.66631529  0.81496845
   0.49890897  0.67200586  0.81327726
   0.99683352  0.16737327  0.81304073
   0.98520145  0.00944267  0.40324921
   0.49551020  0.00272992  0.40412444
   0.16633868  0.15473039  0.40790750
   0.66157257  0.16204944  0.40816729
   0.34567371  0.32167187  0.40643711
   0.84290570  0.32245187  0.41419661
   0.99709656  0.50227663  0.41653214
   0.50016254  0.52011312  0.41696461
   0.16262204  0.67176107  0.41966024
   0.65665205  0.68202733  0.40302815
   0.33927521  0.83954165  0.40682630
   0.81793173  0.84756026  0.40565512
   0.98668661  0.00808046  0.72521857
   0.50775851  0.00041625  0.72576681
   0.15237966  0.16544937  0.71485766
   0.66721604  0.15863974  0.72255767
   0.34872904  0.31965265  0.72558157
   0.84053417  0.32658114  0.71547081
   0.99633909  0.51500587  0.71941246
   0.50060662  0.51562678  0.71165975
   0.15242383  0.67137085  0.72011556
   0.65944167  0.67967137  0.72500822
   0.34187671  0.82695454  0.71876190
   0.82930199  0.83806441  0.72524033
   0.15596507  0.01042425  0.90868790
   0.66924245  0.99783421  0.90438145
   0.34703005  0.16427380  0.91460280
   0.84014334  0.15558901  0.91080160
   0.50102190  0.31984892  0.91785607
   0.99623345  0.32363531  0.90630733
   0.14892731  0.51726279  0.91218635
   0.65688615  0.51065897  0.91267619
   0.34324783  0.66947744  0.90625979
   0.82946328  0.67807305  0.90618497
   0.50971876  0.82721627  0.90751830
   0.98875798  0.83715113  0.90643187
   0.16813203  0.00985522  0.22328843
   0.66434385  0.00176661  0.22640372
   0.34109954  0.15714696  0.22341195
   0.84128292  0.15870657  0.21902149
   0.50009355  0.31823129  0.21344655
   0.99604760  0.32421975  0.22402006
   0.16029611  0.50338779  0.21086505
   0.65078048  0.51400351  0.21636328
   0.34158495  0.67012051  0.22411814
   0.81647542  0.68381998  0.21886008
   0.49587217  0.83983975  0.22434365
   0.98492905  0.84821250  0.21902262
 
 position of ions in cartesian coordinates  (Angst):
   8.34487235  8.73495924  6.34323243
  13.39303172  5.89368810  6.28539342
   3.38732560  0.02929468  0.69775218
  13.32178711  5.97171073  0.75930273
  11.56859856  8.59924326  6.31317725
   9.35208070  1.32083423  6.28547446
   1.95285167  2.90738936  6.28851909
   6.52077624  2.97745920  6.29341416
   9.39773978  4.65020755  6.28063517
   6.57627594  6.04465823  6.30600928
   5.15380871  8.55497935  0.75370913
   7.40484494  1.27258939  0.72981160
  10.22561939  2.93232076  0.72940863
   4.71107681  2.98121683  0.71556447
   7.35826115  4.57470012  0.74609968
  10.10617222  6.04517983  0.74032308
   3.38414426  5.79928513  3.52208815
   3.34999504  2.99774171  3.51631846
   5.83572926  4.40123344  3.52976625
   8.35382384  3.01099066  3.51211591
   5.78441203  7.25581717  3.53294681
  10.93684767  4.41976481  3.50804352
   5.88661323  4.34864578  9.08360202
   8.35040070  2.97823235  9.07273352
   3.34066421  0.04210958  9.06201382
   5.88725587  7.25346166  9.05614181
   3.36241344  2.86012565  9.06958707
  10.92275032  4.33832884  9.04396120
   3.33454858  0.02035171  3.50162675
   8.38107919  0.02921514  3.48188818
   8.36507900  5.89404455  3.53159948
  10.88906872  1.48284144  3.51339358
   5.85159985  1.47183576  3.48408399
  10.87483268  7.33847880  3.51229554
   5.88907882  1.42055258  9.11358607
   8.41365489 -0.02366791  9.06719882
  10.88948449  7.29195682  9.09754979
   3.35421086  5.79554155  9.07916912
   8.39999826  5.86123858  9.06039023
  10.89538692  1.44848803  9.03962481
   9.97805501  0.08821200  4.48063939
   5.01446390  0.01386904  4.49031203
   2.45886897  1.33717100  4.53787863
   7.48132122  1.41693657  4.54083711
   5.09721373  2.80789177  4.52740964
  10.10738428  2.82986071  4.61346732
  12.55697101  4.41260743  4.64575531
   7.64292448  4.55349703  4.65138420
   5.00128053  5.87351156  4.68685849
  10.02580900  5.98017474  4.50222916
   7.61646999  7.35223291  4.55015501
  12.47547128  7.43770770  4.53724439
   9.99587763  0.05586917  8.05813284
   5.13589145 -0.02646454  8.06413437
   2.38102461  1.41131489  7.94892286
   7.53056647  1.36723766  8.03404287
   5.12748191  2.77001199  8.07349051
  10.11315416  2.84690071  7.96120458
  12.62194470  4.50506533  8.01164414
   7.63386042  4.49543675  7.92571121
   4.90568043  5.85069704  8.02533910
  10.05180719  5.93915152  8.07980582
   7.58922914  7.22205785  8.01575934
  12.55216494  7.33444988  8.08795358
   1.64951748  0.03870196 10.09714059
  11.74318622  8.72011281 10.08421232
   4.34086322  1.39443421 10.16826265
   9.26200019  1.33394918 10.12552920
   6.66749192  2.76431374 10.20988572
  11.67174028  2.81382723 10.08150868
   4.10739607  4.48602097 10.15404212
   9.18850634  4.44399147 10.15905672
   6.82300587  5.82825998 10.09352917
  11.76102081  5.91896605 10.09281845
   9.28600683  7.21764574 10.11305983
  14.15842389  7.31994314 10.10115893
   1.74859601  0.07759287  2.48134206
   6.70411054  0.02199804  2.51548085
   4.22484854  1.37557622  2.48788722
   9.26825782  1.40525046  2.43896794
   6.62892684  2.79479797  2.38282590
  11.65230093  2.86225491  2.50033695
   4.13157697  4.40913083  2.36085625
   9.12281637  4.51734473  2.42214034
   6.78899287  5.87714656  2.51397810
  11.63829754  6.01261478  2.45586000
   9.18906986  7.37134930  2.52246130
  14.15442239  7.46052182  2.46344861
 


--------------------------------------------------------------------------------------------------------


 k-point     1 :   0.0000 0.0000 0.0000  plane waves:   23351
 k-point     2 :   0.2500 0.0000 0.0000  plane waves:   23382
 k-point     3 :   0.5000 0.0000 0.0000  plane waves:   23418
 k-point     4 :   0.0000 0.2500 0.0000  plane waves:   23384
 k-point     5 :   0.2500 0.2500 0.0000  plane waves:   23389
 k-point     6 :   0.5000 0.2500 0.0000  plane waves:   23416
 k-point     7 :  -0.2500 0.2500 0.0000  plane waves:   23408
 k-point     8 :   0.0000 0.5000 0.0000  plane waves:   23442
 k-point     9 :   0.2500 0.5000 0.0000  plane waves:   23424
 k-point    10 :   0.5000 0.5000 0.0000  plane waves:   23418

 maximum and minimum number of plane-waves per node :      2946     2902

 maximum number of plane-waves:     23442
 maximum index in each direction: 
   IXMAX=   18   IYMAX=   18   IZMAX=   19
   IXMIN=  -18   IYMIN=  -18   IZMIN=  -19


 real space projection operators:
  total allocation   :      35513.38 KBytes
  max/ min on nodes  :       4458.72       4403.41


 parallel 3D FFT for wavefunctions:
    minimum data exchange during FFTs selected (reduces bandwidth)
 parallel 3D FFT for charge:
    minimum data exchange during FFTs selected (reduces bandwidth)


 total amount of memory used by VASP MPI-rank0   131661. kBytes
=======================================================================

   base                                    :      30000. kBytes
   nonlr-proj                              :      15392. kBytes
   fftplans                                :      11621. kBytes
   grid                                    :      16609. kBytes
   one-center                              :        342. kBytes
   wavefun                                 :      57697. kBytes
 
     INWAV:  cpu time     59.6073: real time     61.6582
 Broyden mixing: mesh for mixing (old mesh)
   NGX = 35   NGY = 37   NGZ = 39
  (NGX  =160   NGY  =160   NGZ  =168)
  gives a total of  50505 points

 initial charge density was supplied:
 number of electron     652.0000013 magnetization      92.0000003
 keeping initial charge density in first step


--------------------------------------------------------------------------------------------------------


 Maximum index for non-local projection operator          836
 Maximum index for augmentation-charges         3067 (set IRDMAX)


--------------------------------------------------------------------------------------------------------


 First call to EWALD:  gamma=   0.178
 Maximum number of real-space cells   3x   3x   3
 Maximum number of reciprocal cells   3x   3x   3

    FEWALD:  cpu time      0.0054: real time      0.0054


--------------------------------------- Ionic step        1  -------------------------------------------




--------------------------------------- Iteration      1(   1)  ---------------------------------------


    POTLOK:  cpu time      0.1834: real time      0.1913
    SETDIJ:  cpu time      0.4574: real time      0.4601
     EDDAV:  cpu time     28.9296: real time     29.1588
       DOS:  cpu time      0.0112: real time      0.0160
    CHARGE:  cpu time      1.8649: real time      1.8758
    MIXING:  cpu time      0.0218: real time      0.0230
    --------------------------------------------
      LOOP:  cpu time     31.4683: real time     31.7251

 eigenvalue-minimisations  : 19632
 total energy-change (2. order) :-0.1024193E+04  (-0.3110789E+01)
 number of electron     652.0000013 magnetization      92.0000003
 augmentation part      234.9987715 magnetization      63.6939706

 Broyden mixing:
  rms(total) = 0.16348E+01    rms(broyden)= 0.16345E+01
  rms(prec ) = 0.16953E+01
  weight for this iteration     100.00

 Free energy of the ion-electron system (eV)
  ---------------------------------------------------
  alpha Z        PSCENC =      2633.58059345
  Ewald energy   TEWEN  =    -39402.30743491
  -Hartree energ DENC   =    -22130.57918989
  -exchange      EXHF   =         0.00000000
  -V(xc)+E(xc)   XCENC  =      3225.28757187
  PAW double counting   =     67707.32028158   -70292.56480948
  entropy T*S    EENTRO =        -0.00010322
  eigenvalues    EBANDS =     -7209.39875533
  atomic energy  EATOM  =     64444.46838340
  Solvation  Ediel_sol  =         0.00000000
  ---------------------------------------------------
  free energy    TOTEN  =     -1024.19346253 eV

  energy without entropy =    -1024.19335931  energy(sigma->0) =    -1024.19341092


--------------------------------------------------------------------------------------------------------




--------------------------------------- Iteration      1(   2)  ---------------------------------------


    POTLOK:  cpu time      0.1870: real time      0.1888
    SETDIJ:  cpu time      0.4374: real time      0.4397
     EDDAV:  cpu time     28.7199: real time     28.9355
       DOS:  cpu time      0.0096: real time      0.0096
    CHARGE:  cpu time      1.8619: real time      1.8735
    MIXING:  cpu time      0.0220: real time      0.0237
    --------------------------------------------
      LOOP:  cpu time     31.2378: real time     31.4709

 eigenvalue-minimisations  : 19448
 total energy-change (2. order) : 0.1633659E+03  (-0.4170477E+01)
 number of electron     652.0000013 magnetization      92.0000003
 augmentation part      238.9079548 magnetization      65.3666030

 Broyden mixing:
  rms(total) = 0.20064E+01    rms(broyden)= 0.20061E+01
  rms(prec ) = 0.20606E+01
  weight for this iteration     100.00

 eigenvalues of (default mixing * dielectric matrix)
  average eigenvalue GAMMA=   0.3898
  0.3898

 Free energy of the ion-electron system (eV)
  ---------------------------------------------------
  alpha Z        PSCENC =      2633.58059345
  Ewald energy   TEWEN  =    -39402.30743491
  -Hartree energ DENC   =    -21997.58468649
  -exchange      EXHF   =         0.00000000
  -V(xc)+E(xc)   XCENC  =      3267.73281192
  PAW double counting   =     67683.57346638   -70254.64661107
  entropy T*S    EENTRO =        -0.01266940
  eigenvalues    EBANDS =     -7235.63143340
  atomic energy  EATOM  =     64444.46838340
  Solvation  Ediel_sol  =         0.00000000
  ---------------------------------------------------
  free energy    TOTEN  =      -860.82758012 eV

  energy without entropy =     -860.81491072  energy(sigma->0) =     -860.82124542


--------------------------------------------------------------------------------------------------------




--------------------------------------- Iteration      1(   3)  ---------------------------------------


    POTLOK:  cpu time      0.1856: real time      0.1924
    SETDIJ:  cpu time      0.4382: real time      0.4407
     EDDAV:  cpu time     31.6921: real time     31.9323
       DOS:  cpu time      0.0099: real time      0.0099
    CHARGE:  cpu time      1.8580: real time      1.8689
    MIXING:  cpu time      0.0221: real time      0.0222
    --------------------------------------------
      LOOP:  cpu time     34.2059: real time     34.4664

 eigenvalue-minimisations  : 22784
 total energy-change (2. order) : 0.1053658E+00  (-0.2118122E+00)
 number of electron     652.0000013 magnetization      92.0000003
 augmentation part      238.7852258 magnetization      65.3510505

 Broyden mixing:
  rms(total) = 0.93504E+00    rms(broyden)= 0.93497E+00
  rms(prec ) = 0.97778E+00
  weight for this iteration     100.00

 eigenvalues of (default mixing * dielectric matrix)
  average eigenvalue GAMMA=   0.3917
  0.3917  0.3917

 Free energy of the ion-electron system (eV)
  ---------------------------------------------------
  alpha Z        PSCENC =      2633.58059345
  Ewald energy   TEWEN  =    -39402.30743491
  -Hartree energ DENC   =    -22047.95381260
  -exchange      EXHF   =         0.00000000
  -V(xc)+E(xc)   XCENC  =      3275.61498626
  PAW double counting   =     67675.40268541   -70247.89301171
  entropy T*S    EENTRO =        -0.00024427
  eigenvalues    EBANDS =     -7191.63435931
  atomic energy  EATOM  =     64444.46838340
  Solvation  Ediel_sol  =         0.00000000
  ---------------------------------------------------
  free energy    TOTEN  =      -860.72221429 eV

  energy without entropy =     -860.72197001  energy(sigma->0) =     -860.72209215


--------------------------------------------------------------------------------------------------------




--------------------------------------- Iteration      1(   4)  ---------------------------------------


    POTLOK:  cpu time      0.1850: real time      0.1879
    SETDIJ:  cpu time      0.4408: real time      0.4433
     EDDAV:  cpu time     32.6435: real time     32.8926
       DOS:  cpu time      0.0100: real time      0.0100
    CHARGE:  cpu time      1.8900: real time      1.9010
    MIXING:  cpu time      0.0220: real time      0.0221
    --------------------------------------------
      LOOP:  cpu time     35.1914: real time     35.4570

 eigenvalue-minimisations  : 23696
 total energy-change (2. order) : 0.1245901E+00  (-0.3711984E-01)
 number of electron     652.0000013 magnetization      92.0000003
 augmentation part      238.8307146 magnetization      65.4506633

 Broyden mixing:
  rms(total) = 0.68184E+00    rms(broyden)= 0.68180E+00
  rms(prec ) = 0.72484E+00
  weight for this iteration     100.00

 eigenvalues of (default mixing * dielectric matrix)
  average eigenvalue GAMMA=   0.4700
  0.5533  0.5533  0.3035

 Free energy of the ion-electron system (eV)
  ---------------------------------------------------
  alpha Z        PSCENC =      2633.58059345
  Ewald energy   TEWEN  =    -39402.30743491
  -Hartree energ DENC   =    -22062.34181477
  -exchange      EXHF   =         0.00000000
  -V(xc)+E(xc)   XCENC  =      3276.91291611
  PAW double counting   =     67657.70714655   -70233.03388112
  entropy T*S    EENTRO =        -0.00623856
  eigenvalues    EBANDS =     -7175.57729435
  atomic energy  EATOM  =     64444.46838340
  Solvation  Ediel_sol  =         0.00000000
  ---------------------------------------------------
  free energy    TOTEN  =      -860.59762420 eV

  energy without entropy =     -860.59138564  energy(sigma->0) =     -860.59450492


--------------------------------------------------------------------------------------------------------




--------------------------------------- Iteration      1(   5)  ---------------------------------------


    POTLOK:  cpu time      0.1871: real time      0.1950
    SETDIJ:  cpu time      0.4379: real time      0.4403
     EDDAV:  cpu time     33.6656: real time     33.9199
       DOS:  cpu time      0.0099: real time      0.0100
    CHARGE:  cpu time      1.8593: real time      1.8700
    MIXING:  cpu time      0.0223: real time      0.0225
    --------------------------------------------
      LOOP:  cpu time     36.1821: real time     36.4576

 eigenvalue-minimisations  : 24952
 total energy-change (2. order) : 0.8237465E-01  (-0.1994458E-01)
 number of electron     652.0000013 magnetization      92.0000003
 augmentation part      238.6753029 magnetization      65.4493571

 Broyden mixing:
  rms(total) = 0.48215E+00    rms(broyden)= 0.48212E+00
  rms(prec ) = 0.50659E+00
  weight for this iteration     100.00

 eigenvalues of (default mixing * dielectric matrix)
  average eigenvalue GAMMA=   0.4500
  0.6154  0.6154  0.2903  0.2789

 Free energy of the ion-electron system (eV)
  ---------------------------------------------------
  alpha Z        PSCENC =      2633.58059345
  Ewald energy   TEWEN  =    -39402.30743491
  -Hartree energ DENC   =    -22081.45160781
  -exchange      EXHF   =         0.00000000
  -V(xc)+E(xc)   XCENC  =      3277.88190758
  PAW double counting   =     67667.86508057   -70245.49245429
  entropy T*S    EENTRO =        -0.00123806
  eigenvalues    EBANDS =     -7155.05847947
  atomic energy  EATOM  =     64444.46838340
  Solvation  Ediel_sol  =         0.00000000
  ---------------------------------------------------
  free energy    TOTEN  =      -860.51524955 eV

  energy without entropy =     -860.51401149  energy(sigma->0) =     -860.51463052


--------------------------------------------------------------------------------------------------------




--------------------------------------- Iteration      1(   6)  ---------------------------------------


    POTLOK:  cpu time      0.1868: real time      0.1895
    SETDIJ:  cpu time      0.4398: real time      0.4423
     EDDAV:  cpu time     34.0721: real time     34.3335
       DOS:  cpu time      0.0095: real time      0.0096
    CHARGE:  cpu time      1.8604: real time      1.8715
    MIXING:  cpu time      0.0222: real time      0.0222
    --------------------------------------------
      LOOP:  cpu time     36.5907: real time     36.8686

 eigenvalue-minimisations  : 25160
 total energy-change (2. order) : 0.2795333E-01  (-0.4993947E-02)
 number of electron     652.0000013 magnetization      92.0000003
 augmentation part      238.5801266 magnetization      65.4391673

 Broyden mixing:
  rms(total) = 0.39171E+00    rms(broyden)= 0.39170E+00
  rms(prec ) = 0.40840E+00
  weight for this iteration     100.00

 eigenvalues of (default mixing * dielectric matrix)
  average eigenvalue GAMMA=   0.4663
  0.6956  0.6956  0.3574  0.3574  0.2255

 Free energy of the ion-electron system (eV)
  ---------------------------------------------------
  alpha Z        PSCENC =      2633.58059345
  Ewald energy   TEWEN  =    -39402.30743491
  -Hartree energ DENC   =    -22089.76346056
  -exchange      EXHF   =         0.00000000
  -V(xc)+E(xc)   XCENC  =      3278.19967690
  PAW double counting   =     67675.18572095   -70253.82366429
  entropy T*S    EENTRO =        -0.00253093
  eigenvalues    EBANDS =     -7146.02458022
  atomic energy  EATOM  =     64444.46838340
  Solvation  Ediel_sol  =         0.00000000
  ---------------------------------------------------
  free energy    TOTEN  =      -860.48729622 eV

  energy without entropy =     -860.48476529  energy(sigma->0) =     -860.48603075


--------------------------------------------------------------------------------------------------------




--------------------------------------- Iteration      1(   7)  ---------------------------------------


    POTLOK:  cpu time      0.1856: real time      0.1946
    SETDIJ:  cpu time      0.4386: real time      0.4410
     EDDAV:  cpu time     33.3325: real time     33.5884
       DOS:  cpu time      0.0099: real time      0.0100
    CHARGE:  cpu time      1.8610: real time      1.8716
    MIXING:  cpu time      0.0223: real time      0.0224
    --------------------------------------------
      LOOP:  cpu time     35.8500: real time     36.1281

 eigenvalue-minimisations  : 24560
 total energy-change (2. order) : 0.1665155E-01  (-0.2139789E-02)
 number of electron     652.0000013 magnetization      92.0000003
 augmentation part      238.5174708 magnetization      65.4309643

 Broyden mixing:
  rms(total) = 0.32886E+00    rms(broyden)= 0.32885E+00
  rms(prec ) = 0.34189E+00
  weight for this iteration     100.00

 eigenvalues of (default mixing * dielectric matrix)
  average eigenvalue GAMMA=   0.4796
  0.8081  0.8081  0.3970  0.3970  0.2633  0.2044

 Free energy of the ion-electron system (eV)
  ---------------------------------------------------
  alpha Z        PSCENC =      2633.58059345
  Ewald energy   TEWEN  =    -39402.30743491
  -Hartree energ DENC   =    -22097.09884391
  -exchange      EXHF   =         0.00000000
  -V(xc)+E(xc)   XCENC  =      3278.69645287
  PAW double counting   =     67681.75691927   -70261.45901078
  entropy T*S    EENTRO =        -0.00196483
  eigenvalues    EBANDS =     -7138.10573922
  atomic energy  EATOM  =     64444.46838340
  Solvation  Ediel_sol  =         0.00000000
  ---------------------------------------------------
  free energy    TOTEN  =      -860.47064467 eV

  energy without entropy =     -860.46867984  energy(sigma->0) =     -860.46966225


--------------------------------------------------------------------------------------------------------




--------------------------------------- Iteration      1(   8)  ---------------------------------------


    POTLOK:  cpu time      0.1853: real time      0.1881
    SETDIJ:  cpu time      0.4421: real time      0.4446
     EDDAV:  cpu time     32.6799: real time     32.9271
       DOS:  cpu time      0.0098: real time      0.0098
    CHARGE:  cpu time      1.8600: real time      1.8708
    MIXING:  cpu time      0.0224: real time      0.0225
    --------------------------------------------
      LOOP:  cpu time     35.1994: real time     35.4628

 eigenvalue-minimisations  : 23800
 total energy-change (2. order) : 0.8847463E-02  (-0.7511745E-03)
 number of electron     652.0000013 magnetization      92.0000003
 augmentation part      238.4834954 magnetization      65.4272537

 Broyden mixing:
  rms(total) = 0.28753E+00    rms(broyden)= 0.28753E+00
  rms(prec ) = 0.29836E+00
  weight for this iteration     100.00

 eigenvalues of (default mixing * dielectric matrix)
  average eigenvalue GAMMA=   0.4999
  0.9186  0.9186  0.4537  0.4537  0.2811  0.2811  0.1928

 Free energy of the ion-electron system (eV)
  ---------------------------------------------------
  alpha Z        PSCENC =      2633.58059345
  Ewald energy   TEWEN  =    -39402.30743491
  -Hartree energ DENC   =    -22101.29849331
  -exchange      EXHF   =         0.00000000
  -V(xc)+E(xc)   XCENC  =      3278.93101173
  PAW double counting   =     67685.74043617   -70266.09462698
  entropy T*S    EENTRO =        -0.00212877
  eigenvalues    EBANDS =     -7133.47953799
  atomic energy  EATOM  =     64444.46838340
  Solvation  Ediel_sol  =         0.00000000
  ---------------------------------------------------
  free energy    TOTEN  =      -860.46179720 eV

  energy without entropy =     -860.45966844  energy(sigma->0) =     -860.46073282


--------------------------------------------------------------------------------------------------------




--------------------------------------- Iteration      1(   9)  ---------------------------------------


[...]
   0.107E+03 -.768E+02 -.343E+03   -.110E+03 0.806E+02 0.359E+03   0.326E+01 -.376E+01 -.160E+02   -.167E-03 0.354E-03 0.401E-04
   -.147E+03 0.630E+02 -.355E+03   0.150E+03 -.642E+02 0.371E+03   -.312E+01 0.124E+01 -.162E+02   -.551E-05 -.761E-05 0.160E-03
   0.663E+02 0.731E+02 0.359E+03   -.697E+02 -.758E+02 -.375E+03   0.341E+01 0.269E+01 0.162E+02   -.228E-05 -.861E-04 -.751E-04
   -.510E+01 0.282E+02 0.417E+03   0.419E+01 -.294E+02 -.437E+03   0.910E+00 0.121E+01 0.197E+02   -.334E-04 0.186E-04 -.169E-03
   0.775E+02 -.157E+03 0.354E+03   -.797E+02 0.161E+03 -.370E+03   0.229E+01 -.378E+01 0.166E+02   -.393E-04 0.198E-03 -.775E-04
   0.165E+02 -.111E+03 0.325E+03   -.183E+02 0.115E+03 -.340E+03   0.185E+01 -.343E+01 0.147E+02   -.335E-04 0.594E-04 -.116E-03
   -.256E+02 -.164E+03 0.272E+03   0.270E+02 0.168E+03 -.286E+03   -.138E+01 -.391E+01 0.143E+02   -.178E-03 0.295E-03 0.364E-04
   -.110E+03 -.140E+03 0.322E+03   0.114E+03 0.142E+03 -.339E+03   -.426E+01 -.169E+01 0.168E+02   0.175E-03 0.121E-03 -.860E-05
   0.245E+01 -.221E+02 0.222E+03   -.113E+01 0.219E+02 -.238E+03   -.132E+01 0.183E+00 0.152E+02   0.214E-03 -.532E-04 0.198E-03
   -.523E+02 0.108E+03 0.274E+03   0.549E+02 -.110E+03 -.288E+03   -.264E+01 0.161E+01 0.137E+02   0.132E-04 -.694E-04 -.174E-04
   0.178E+03 0.253E+01 0.325E+03   -.182E+03 -.157E+01 -.342E+03   0.342E+01 -.958E+00 0.171E+02   -.283E-03 -.198E-03 0.760E-04
   -.112E+03 0.164E+03 0.290E+03   0.115E+03 -.167E+03 -.305E+03   -.374E+01 0.295E+01 0.149E+02   0.115E-03 -.135E-03 -.110E-04
   0.319E+02 0.276E+02 0.405E+03   -.322E+02 -.278E+02 -.422E+03   0.336E+00 0.221E+00 0.177E+02   -.327E-04 0.288E-04 -.153E-03
   -.809E+02 0.167E+03 0.290E+03   0.809E+02 -.171E+03 -.306E+03   0.209E-01 0.337E+01 0.151E+02   0.913E-04 -.207E-03 -.249E-04
 -----------------------------------------------------------------------------------------------
   0.324E+01 -.138E+01 0.102E+01   -.398E-12 0.341E-12 0.284E-12   -.315E+01 0.135E+01 -.107E+01   -.311E-03 0.347E-03 0.652E-04
 
 
 POSITION                                       TOTAL-FORCE (eV/Angst)
 -----------------------------------------------------------------------------------
      8.34487      8.73496      6.34323        -0.002999      0.007911      0.000551
     13.39303      5.89369      6.28539         0.000217      0.002103      0.000455
      3.38733      0.02929      0.69775         0.002612     -0.002226      0.000559
     13.32179      5.97171      0.75930         0.001268      0.000650     -0.001854
     11.56860      8.59924      6.31318        -0.001549      0.000069     -0.000715
      9.35208      1.32083      6.28547        -0.000311     -0.000381      0.001973
      1.95285      2.90739      6.28852        -0.000334      0.002394     -0.001204
      6.52078      2.97746      6.29341         0.002031     -0.002767     -0.000178
      9.39774      4.65021      6.28064         0.000248      0.001392     -0.002060
      6.57628      6.04466      6.30601         0.000244     -0.000732     -0.001144
      5.15381      8.55498      0.75371         0.001826      0.001923     -0.001020
      7.40484      1.27259      0.72981         0.000304     -0.000552     -0.000023
     10.22562      2.93232      0.72941        -0.000147      0.001672     -0.001697
      4.71108      2.98122      0.71556        -0.000197     -0.002275     -0.001112
      7.35826      4.57470      0.74610        -0.000900      0.000925      0.001810
     10.10617      6.04518      0.74032         0.002393     -0.003190      0.000074
      3.38414      5.79929      3.52209         0.000165      0.002233     -0.000936
      3.35000      2.99774      3.51632         0.000035     -0.004465     -0.001406
      5.83573      4.40123      3.52977         0.000370     -0.004046     -0.000293
      8.35382      3.01099      3.51212        -0.001098     -0.001644     -0.000978
      5.78441      7.25582      3.53295        -0.001660      0.005726      0.000817
     10.93685      4.41976      3.50804         0.001184     -0.002940     -0.001546
      5.88661      4.34865      9.08360        -0.000576     -0.005681     -0.000559
      8.35040      2.97823      9.07273        -0.000724     -0.001163      0.002366
      3.34066      0.04211      9.06201         0.002950     -0.001283     -0.001092
      5.88726      7.25346      9.05614        -0.002321      0.002023     -0.000487
      3.36241      2.86013      9.06959         0.002112     -0.003192     -0.001797
     10.92275      4.33833      9.04396        -0.001076     -0.001113     -0.000247
      3.33455      0.02035      3.50163         0.000812     -0.004985     -0.002552
      8.38108      0.02922      3.48189        -0.003404      0.002551     -0.000628
      8.36508      5.89404      3.53160         0.003695     -0.000265      0.000935
     10.88907      1.48284      3.51339         0.003741     -0.007363      0.002111
      5.85160      1.47184      3.48408        -0.000096     -0.003525     -0.003542
     10.87483      7.33848      3.51230         0.004122     -0.002122      0.003907
      5.88908      1.42055      9.11359         0.000952     -0.006423      0.000401
      8.41365     -0.02367      9.06720         0.001961      0.001512      0.004001
     10.88948      7.29196      9.09755         0.000792     -0.004960     -0.002281
      3.35421      5.79554      9.07917        -0.002201     -0.000881      0.002862
      8.40000      5.86124      9.06039        -0.000891      0.002484      0.002278
     10.89539      1.44849      9.03962        -0.000782     -0.007694     -0.003119
      9.97806      0.08821      4.48064         0.000707     -0.002256     -0.003165
      5.01446      0.01387      4.49031        -0.000530      0.002283      0.000152
      2.45887      1.33717      4.53788        -0.002427      0.006410      0.000200
      7.48132      1.41694      4.54084         0.000369     -0.000107      0.000586
      5.09721      2.80789      4.52741        -0.001857      0.003241      0.001219
     10.10738      2.82986      4.61347         0.000132      0.002308      0.000394
     12.55697      4.41261      4.64576        -0.000902     -0.000255      0.001521
      7.64292      4.55350      4.65138         0.000267      0.000611      0.003242
      5.00128      5.87351      4.68686        -0.000467     -0.000045      0.001100
     10.02581      5.98017      4.50223        -0.004663      0.000170      0.000276
      7.61647      7.35223      4.55016        -0.001155      0.000119      0.001563
     12.47547      7.43771      4.53724        -0.000382      0.001330      0.000293
      9.99588      0.05587      8.05813         0.000864      0.000437     -0.001711
      5.13589     -0.02646      8.06413        -0.003188      0.001104      0.000704
      2.38102      1.41131      7.94892        -0.001015      0.003557     -0.000952
      7.53057      1.36724      8.03404         0.000272      0.000389     -0.000456
      5.12748      2.77001      8.07349        -0.002667      0.006607     -0.001940
     10.11315      2.84690      7.96120        -0.001607      0.003732      0.000262
     12.62194      4.50507      8.01164         0.000307     -0.000698     -0.002122
      7.63386      4.49544      7.92571         0.000947      0.001117     -0.001606
      4.90568      5.85070      8.02534         0.002109      0.000642     -0.003033
     10.05181      5.93915      8.07981        -0.001766      0.000816     -0.003712
      7.58923      7.22206      8.01576         0.002142      0.002084      0.000229
     12.55216      7.33445      8.08795        -0.001534      0.003021     -0.001013
      1.64952      0.03870     10.09714         0.000055     -0.002771      0.002767
     11.74319      8.72011     10.08421         0.001168     -0.001608     -0.000213
      4.34086      1.39443     10.16826        -0.003184      0.000239      0.000582
      9.26200      1.33395     10.12553        -0.002814      0.000604      0.001305
      6.66749      2.76431     10.20989         0.001609      0.003234      0.000491
     11.67174      2.81383     10.08151         0.000255      0.001545      0.001098
      4.10740      4.48602     10.15404        -0.000224     -0.000584      0.002442
      9.18851      4.44399     10.15906        -0.002129     -0.002496      0.001041
      6.82301      5.82826     10.09353         0.002065     -0.002633      0.001811
     11.76102      5.91897     10.09282         0.001815     -0.000818      0.003869
      9.28601      7.21765     10.11306        -0.004322      0.000740      0.000058
     14.15842      7.31994     10.10116        -0.002223     -0.001636      0.001156
      1.74860      0.07759      2.48134        -0.002566     -0.000477     -0.001257
      6.70411      0.02200      2.51548         0.001961      0.001738      0.000584
      4.22485      1.37558      2.48789         0.003240      0.002090      0.002510
      9.26826      1.40525      2.43897        -0.000516      0.000259      0.002648
      6.62893      2.79480      2.38283         0.001801     -0.000395      0.001230
     11.65230      2.86225      2.50034         0.000307      0.004950      0.000700
      4.13158      4.40913      2.36086        -0.000341      0.002356     -0.002482
      9.12282      4.51734      2.42214         0.000007      0.000347      0.000857
      6.78899      5.87715      2.51398         0.002786     -0.001282     -0.002281
     11.63830      6.01261      2.45586         0.003172     -0.000997     -0.003079
      9.18907      7.37135      2.52246        -0.000374      0.000689     -0.001217
     14.15442      7.46052      2.46345         0.001726      0.000589      0.000716
 -----------------------------------------------------------------------------------
    total drift:                                0.085192     -0.023471     -0.042439


--------------------------------------------------------------------------------------------------------



  FREE ENERGIE OF THE ION-ELECTRON SYSTEM (eV)
  ---------------------------------------------------
  free  energy   TOTEN  =      -860.43210394 eV

  energy  without entropy=     -860.42998317  energy(sigma->0) =     -860.43104355
 


--------------------------------------------------------------------------------------------------------


    POTLOK:  cpu time      0.6923: real time      0.6966


--------------------------------------------------------------------------------------------------------




--------------------------------------------------------------------------------------------------------


  
 reached required accuracy - stopping structural energy minimisation
 writing wavefunctions
     LOOP+:  cpu time   1005.2954: real time   1014.2169
    4ORBIT:  cpu time      0.0000: real time      0.0000



 total charge

# of ion       s       p       d       tot
------------------------------------------
    1        0.044   5.991   0.000   6.035
    2        0.049   5.997   0.000   6.045
    3        0.044   5.991   0.000   6.035
    4        0.048   5.996   0.000   6.043
    5        0.047   5.993   0.000   6.040
    6        0.049   5.995   0.000   6.044
    7        0.048   5.995   0.000   6.043
    8        0.045   5.990   0.000   6.035
    9        0.045   5.991   0.000   6.035
   10        0.049   5.995   0.000   6.044
   11        0.047   5.993   0.000   6.040
   12        0.047   5.993   0.000   6.041
   13        0.046   5.991   0.000   6.037
   14        0.048   5.995   0.000   6.042
   15        0.048   5.994   0.000   6.041
   16        0.048   5.995   0.000   6.043
   17        0.368   0.543   5.937   6.847
   18        0.363   0.532   5.884   6.780
   19        0.348   0.498   5.923   6.769
   20        0.343   0.489   5.925   6.757
   21        0.368   0.542   5.892   6.802
   22        0.365   0.533   5.889   6.787
   23        0.347   0.496   5.923   6.766
   24        0.348   0.499   5.928   6.775
   25        0.367   0.538   5.954   6.859
   26        0.375   0.557   5.852   6.784
   27        0.344   0.492   5.915   6.752
   28        0.375   0.554   5.862   6.790
   29        0.382   6.460   4.864  11.706
   30        0.375   6.448   4.848  11.671
   31        0.376   6.452   4.856  11.685
   32        0.373   6.446   4.845  11.663
   33        0.380   6.457   4.860  11.697
   34        0.378   6.452   4.853  11.683
   35        0.380   6.458   4.861  11.700
   36        0.377   6.453   4.846  11.677
   37        0.377   6.453   4.843  11.672
   38        0.382   6.455   4.881  11.718
   39        0.374   6.450   4.847  11.671
   40        0.374   6.451   4.849  11.674
   41        1.580   3.480   0.000   5.060
   42        1.576   3.481   0.000   5.057
   43        1.577   3.472   0.000   5.048
   44        1.572   3.476   0.000   5.048
   45        1.577   3.480   0.000   5.057
   46        1.571   3.469   0.000   5.040
   47        1.571   3.487   0.000   5.057
   48        1.571   3.472   0.000   5.043
   49        1.571   3.483   0.000   5.054
   50        1.579   3.480   0.000   5.059
   51        1.577   3.482   0.000   5.059
   52        1.577   3.476   0.000   5.052
   53        1.580   3.481   0.000   5.061
   54        1.575   3.487   0.000   5.062
   55        1.574   3.479   0.000   5.052
   56        1.572   3.476   0.000   5.049
   57        1.576   3.480   0.000   5.056
   58        1.571   3.477   0.000   5.048
   59        1.574   3.483   0.000   5.057
   60        1.570   3.470   0.000   5.040
   61        1.574   3.484   0.000   5.059
   62        1.579   3.478   0.000   5.057
   63        1.574   3.488   0.000   5.062
   64        1.576   3.478   0.000   5.054
   65        1.573   3.490   0.000   5.063
   66        1.580   3.481   0.000   5.061
   67        1.574   3.486   0.000   5.060
   68        1.573   3.470   0.000   5.043
   69        1.571   3.476   0.000   5.047
   70        1.577   3.480   0.000   5.057
   71        1.574   3.472   0.000   5.046
   72        1.570   3.478   0.000   5.048
   73        1.577   3.480   0.000   5.056
   74        1.576   3.484   0.000   5.060
   75        1.576   3.479   0.000   5.056
   76        1.576   3.481   0.000   5.057
   77        1.577   3.476   0.000   5.053
   78        1.580   3.483   0.000   5.063
   79        1.577   3.480   0.000   5.056
   80        1.573   3.470   0.000   5.042
   81        1.572   3.468   0.000   5.040
   82        1.577   3.480   0.000   5.057
   83        1.571   3.479   0.000   5.050
   84        1.570   3.477   0.000   5.047
   85        1.577   3.483   0.000   5.060
   86        1.575   3.482   0.000   5.057
   87        1.576   3.479   0.000   5.055
   88        1.575   3.485   0.000   5.060
--------------------------------------------------
tot         85.180 346.600 129.137 560.917



 magnetization (x)

# of ion       s       p       d       tot
------------------------------------------
    1        0.001   0.001   0.000   0.002
    2        0.002   0.002   0.000   0.005
    3        0.001   0.001   0.000   0.001
    4        0.002   0.002   0.000   0.004
    5        0.004   0.002   0.000   0.006
    6        0.004   0.002   0.000   0.007
    7        0.004   0.002   0.000   0.005
    8        0.002   0.001   0.000   0.003
    9        0.002   0.000   0.000   0.002
   10        0.004   0.002   0.000   0.006
   11        0.004   0.002   0.000   0.006
   12        0.003   0.001   0.000   0.004
   13        0.003   0.001   0.000   0.003
   14        0.004   0.002   0.000   0.006
   15        0.004   0.002   0.000   0.005
   16        0.004   0.002   0.000   0.006
   17        0.025   0.019   3.918   3.962
   18        0.028   0.021   3.972   4.020
   19        0.028   0.015   3.895   3.938
   20        0.028   0.018   3.888   3.935
   21        0.029   0.023   3.973   4.024
   22        0.028   0.020   3.966   4.015
   23        0.030   0.018   3.891   3.939
   24        0.027   0.017   3.895   3.939
   25        0.028   0.020   3.894   3.943
   26        0.029   0.021   4.036   4.086
   27        0.031   0.018   3.901   3.949
   28        0.028   0.020   4.020   4.068
   29        0.019   0.032   2.803   2.855
   30        0.019   0.031   2.815   2.865
   31        0.017   0.030   2.777   2.825
   32        0.018   0.032   2.798   2.848
   33        0.018   0.031   2.804   2.853
   34        0.020   0.031   2.803   2.854
   35        0.018   0.030   2.799   2.847
   36        0.020   0.032   2.833   2.885
   37        0.020   0.032   2.832   2.884
   38        0.015   0.029   2.734   2.778
   39        0.018   0.030   2.793   2.841
   40        0.018   0.030   2.791   2.839
   41        0.008   0.095   0.000   0.103
   42        0.001  -0.008   0.000  -0.007
   43        0.007   0.067   0.000   0.074
   44        0.007   0.076   0.000   0.083
   45        0.014   0.201   0.000   0.215
   46        0.013   0.179   0.000   0.192
   47        0.020   0.355   0.000   0.375
   48        0.013   0.182   0.000   0.195
   49        0.019   0.348   0.000   0.368
   50        0.008   0.100   0.000   0.108
   51        0.008   0.086   0.000   0.094
   52        0.007   0.059   0.000   0.066
   53        0.008   0.099   0.000   0.107
   54        0.008   0.080   0.000   0.088
   55        0.013   0.194   0.000   0.207
   56        0.007   0.078   0.000   0.086
   57        0.013   0.187   0.000   0.201
   58        0.014   0.201   0.000   0.215
   59        0.014   0.210   0.000   0.223
   60        0.013   0.187   0.000   0.200
   61        0.014   0.211   0.000   0.225
   62        0.008   0.100   0.000   0.108
   63        0.014   0.206   0.000   0.220
   64        0.001  -0.013   0.000  -0.012
   65        0.014   0.209   0.000   0.222
   66        0.002   0.002   0.000   0.004
   67        0.013   0.192   0.000   0.206
   68        0.007   0.068   0.000   0.075
   69        0.013   0.186   0.000   0.199
   70        0.014   0.220   0.000   0.234
   71        0.013   0.177   0.000   0.190
   72        0.013   0.201   0.000   0.215
   73        0.014   0.221   0.000   0.235
   74        0.008   0.098   0.000   0.106
   75        0.007   0.069   0.000   0.076
   76        0.008   0.093   0.000   0.100
   77        0.007   0.076   0.000   0.084
   78        0.002   0.003   0.000   0.005
   79        0.008   0.079   0.000   0.087
   80        0.007   0.066   0.000   0.073
   81        0.013   0.175   0.000   0.188
   82        0.014   0.220   0.000   0.234
   83        0.019   0.349   0.000   0.368
   84        0.013   0.185   0.000   0.198
   85        0.014   0.212   0.000   0.226
   86        0.014   0.195   0.000   0.208
   87        0.001  -0.012   0.000  -0.010
   88        0.014   0.199   0.000   0.213
--------------------------------------------------
tot          1.112   7.589  80.832  89.533
 

 total amount of memory used by VASP MPI-rank0   131661. kBytes
=======================================================================

   base                                    :      30000. kBytes
   nonlr-proj                              :      15392. kBytes
   fftplans                                :      11621. kBytes
   grid                                    :      16609. kBytes
   one-center                              :        342. kBytes
   wavefun                                 :      57697. kBytes
 
  
  
 General timing and accounting informations for this job:
 ========================================================
  
                  Total CPU time used (sec):     1095.486
                            User time (sec):     1087.236
                          System time (sec):        8.250
                         Elapsed time (sec):     1107.516
  
                   Maximum memory used (kb):      833744.
                   Average memory used (kb):          N/A
  
                          Minor page faults:       313948
                          Major page faults:          174
                 Voluntary context switches:        35355
